                               Psi4 1.2a1.dev547

  ==> Input File <==

--------------------------------------------------------------------------

# PYTHONPATH must include directory above plugin directory.
#     Define either externally or here, then import plugin.
sys.path.insert(0, './..')
import syshfwplug

plugin_load("./syshfwplug.so")

molecule {
O  0.0 0.0 0.0
H  1.0 1.0 0.0
H -1.0 1.0 0.0
symmetry c1
}

set {
  basis def2-qzvpp
}

set syshfwplug {
  pref mytest
  do_tei 1
  print 1
}

set scf reference uhf
set scf_type pk
set scf PRINT_MOS  true

e_scf,ref_wfn = energy('scf',return_wfn=True)

ref_wfn.Da().print_out()

plugin("syshfwplug.so", ref_wfn)
#syshfwplug.exampleFN(ref_wfn)
--------------------------------------------------------------------------

    Molecular point group: c1
  Charge       = 0
  Multiplicity = 1
  Basis Set: DEF2-QZVPP
    Blend: DEF2-QZVPP

    Orbital Energies (a.u.)
    -----------------------

    Alpha Occupied:

       1A    -20.629883     2A     -1.228172     3A     -0.525463
       4A     -0.515428     5A     -0.502544

    Alpha Virtual:

       6A      0.046921     7A      0.087895     8A      0.274725
       9A      0.304301    10A      0.377457    11A      0.380286
      12A      0.464282    13A      0.516760    14A      0.614662
      15A      0.632358    16A      0.767281    17A      0.786067
      18A      0.918535    19A      0.941236    20A      1.159281
      21A      1.201653    22A      1.377550    23A      1.402162
      24A      1.424137    25A      1.512282    26A      1.607063
      27A      1.614373    28A      1.887747    29A      1.905931
      30A      1.974484    31A      2.013252    32A      2.163114
      33A      2.186610    34A      2.350270    35A      2.351957
      36A      2.368329    37A      2.422143    38A      2.501188
      39A      2.534262    40A      2.561078    41A      2.631114
      42A      2.734051    43A      2.929725    44A      2.966118
      45A      3.040051    46A      3.556430    47A      3.596860
      48A      3.814647    49A      3.837160    50A      3.842424
      51A      3.914036    52A      4.224940    53A      4.274380
      54A      4.394634    55A      4.405030    56A      4.434742
      57A      4.587833    58A      4.619661    59A      5.373671
      60A      5.378915    61A      5.433271    62A      5.961459
      63A      6.003717    64A      6.006606    65A      6.028083
      66A      6.033290    67A      6.071175    68A      6.086572
      69A      6.250878    70A      6.254680    71A      6.277284
      72A      6.607454    73A      6.643920    74A      6.684108
      75A      6.955164    76A      7.086218    77A      7.137824
      78A      7.793753    79A      7.811074    80A      7.833447
      81A      7.944667    82A      8.069363    83A      8.099427
      84A      8.195777    85A      8.196246    86A      8.375565
      87A      8.434668    88A      8.451830    89A      8.459403
      90A      8.467978    91A      8.865685    92A      9.200950
      93A      9.238801    94A      9.447224    95A      9.455662
      96A      9.494567    97A      9.631439    98A      9.968290
      99A     10.015364   100A     10.139717   101A     10.280709
     102A     10.668666   103A     11.619305   104A     11.805125
     105A     11.864012   106A     11.894408   107A     12.056425
     108A     12.293638   109A     12.624082   110A     12.645279
     111A     12.688536   112A     12.711061   113A     12.925987
     114A     13.470086   115A     14.036151   116A     48.515261
     117A    255.244666

    Beta Occupied:

       1A    -20.629883     2A     -1.228172     3A     -0.525463
       4A     -0.515428     5A     -0.502544

    Beta Virtual:

       6A      0.046921     7A      0.087895     8A      0.274725
       9A      0.304301    10A      0.377457    11A      0.380286
      12A      0.464282    13A      0.516760    14A      0.614662
      15A      0.632358    16A      0.767281    17A      0.786067
      18A      0.918535    19A      0.941236    20A      1.159281
      21A      1.201653    22A      1.377550    23A      1.402162
      24A      1.424137    25A      1.512282    26A      1.607063
      27A      1.614373    28A      1.887747    29A      1.905931
      30A      1.974484    31A      2.013252    32A      2.163114
      33A      2.186610    34A      2.350270    35A      2.351957
      36A      2.368329    37A      2.422143    38A      2.501188
      39A      2.534262    40A      2.561078    41A      2.631114
      42A      2.734051    43A      2.929725    44A      2.966118
      45A      3.040051    46A      3.556430    47A      3.596860
      48A      3.814647    49A      3.837160    50A      3.842424
      51A      3.914036    52A      4.224940    53A      4.274380
      54A      4.394634    55A      4.405030    56A      4.434742
      57A      4.587833    58A      4.619661    59A      5.373671
      60A      5.378915    61A      5.433271    62A      5.961459
      63A      6.003717    64A      6.006606    65A      6.028083
      66A      6.033290    67A      6.071175    68A      6.086572
      69A      6.250878    70A      6.254680    71A      6.277284
      72A      6.607454    73A      6.643920    74A      6.684108
      75A      6.955164    76A      7.086218    77A      7.137824
      78A      7.793753    79A      7.811074    80A      7.833447
      81A      7.944667    82A      8.069363    83A      8.099427
      84A      8.195777    85A      8.196246    86A      8.375565
      87A      8.434668    88A      8.451830    89A      8.459403
      90A      8.467978    91A      8.865685    92A      9.200950
      93A      9.238801    94A      9.447224    95A      9.455662
      96A      9.494567    97A      9.631439    98A      9.968290
      99A     10.015364   100A     10.139717   101A     10.280709
     102A     10.668666   103A     11.619305   104A     11.805125
     105A     11.864012   106A     11.894408   107A     12.056425
     108A     12.293638   109A     12.624082   110A     12.645279
     111A     12.688536   112A     12.711061   113A     12.925987
     114A     13.470086   115A     14.036151   116A     48.515261
     117A    255.244666

    Final Occupation by Irrep:
              A
    DOCC [     5 ]
    SOCC [     0 ]

  Energy converged.

  @UHF Final Energy:   -75.86591868543768

   => Energetics <=

    Nuclear Repulsion Energy =              6.2515452865887138
    One-Electron Energy =                -117.4316235753810389
    Two-Electron Energy =                  35.3141596033546534
    Total Energy =                        -75.8659186854376770

  UHF NO Occupations:
  HONO-2 :    3  A 2.0000000
  HONO-1 :    4  A 2.0000000
  HONO-0 :    5  A 2.0000000
  LUNO+0 :    6  A 0.0000000
  LUNO+1 :    7  A 0.0000000
  LUNO+2 :    8  A 0.0000000
  LUNO+3 :    9  A 0.0000000

Properties will be evaluated at   0.000000,   0.000000,   0.000000 Bohr

Properties computed using the SCF density matrix

  Nuclear Dipole Moment: (a.u.)
     X:     0.0000      Y:     0.0000      Z:     1.6646

  Electronic Dipole Moment: (a.u.)
     X:     0.0000      Y:     0.0000      Z:    -0.6651

  Dipole Moment: (a.u.)
     X:     0.0000      Y:     0.0000      Z:     0.9994     Total:     0.9994

  Dipole Moment: (Debye)
     X:     0.0000      Y:     0.0000      Z:     2.5403     Total:     2.5403

  ==> Alpha-Spin Molecular Orbitals <==

                            1            2            3            4            5

 1    O1 s0         0.5606679    0.1229928   -0.0000000    0.0279851    0.0000000
 2    O1 s0         0.0000497    0.0188010   -0.0000000    0.0046532    0.0000000
 3    O1 s0         0.3664565    0.1535659   -0.0000000    0.0356656    0.0000000
 4    O1 s0         0.1623697    0.0724157   -0.0000000    0.0180801    0.0000000
 5    O1 s0         0.0113011   -0.3079538    0.0000000   -0.0871980   -0.0000000
 6    O1 s0        -0.0017067   -0.5331544   -0.0000000   -0.1295708   -0.0000000
 7    O1 s0         0.0008738   -0.2448341    0.0000000   -0.1467491   -0.0000000
 8    O1 p0         0.0017276   -0.0051010   -0.0000000    0.2609203    0.0000000
 9    O1 p+1        0.0000000    0.0000000    0.2613228    0.0000000   -0.0000000
 10   O1 p-1       -0.0000000   -0.0000000    0.0000000   -0.0000000    0.3597505
 11   O1 p0        -0.0014078   -0.0105406   -0.0000000    0.2619670    0.0000000
 12   O1 p+1        0.0000000    0.0000000    0.2607751    0.0000000   -0.0000000
 13   O1 p-1        0.0000000   -0.0000000    0.0000000   -0.0000000    0.3500261
 14   O1 p0         0.0006089   -0.0139746   -0.0000000    0.2419152    0.0000000
 15   O1 p+1       -0.0000000   -0.0000000    0.2534089   -0.0000000   -0.0000000
 16   O1 p-1       -0.0000000    0.0000000    0.0000000   -0.0000000    0.3319947
 17   O1 p0        -0.0000794    0.0004470   -0.0000000    0.1256183    0.0000000
 18   O1 p+1       -0.0000000   -0.0000000    0.1068400    0.0000000   -0.0000000
 19   O1 p-1        0.0000000   -0.0000000    0.0000000   -0.0000000    0.1782906
 20   O1 d0         0.0000431    0.0002333   -0.0000000    0.0015884   -0.0000000
 21   O1 d+1       -0.0000000   -0.0000000    0.0022805    0.0000000    0.0000000
 22   O1 d-1       -0.0000000   -0.0000000    0.0000000   -0.0000000    0.0014733
 23   O1 d+2        0.0000486    0.0004622   -0.0000000    0.0007186   -0.0000000
 24   O1 d-2        0.0000000   -0.0000000    0.0000000    0.0000000    0.0000000
 25   O1 d0        -0.0002238   -0.0008275   -0.0000000    0.0056623    0.0000000
 26   O1 d+1        0.0000000    0.0000000    0.0116335    0.0000000   -0.0000000
 27   O1 d-1        0.0000000    0.0000000    0.0000000    0.0000000    0.0040732
 28   O1 d+2       -0.0003225   -0.0017197   -0.0000000    0.0034622    0.0000000
 29   O1 d-2       -0.0000000    0.0000000    0.0000000   -0.0000000   -0.0000000
 30   O1 d0         0.0000526   -0.0016629   -0.0000000    0.0132586    0.0000000
 31   O1 d+1       -0.0000000   -0.0000000    0.0232111   -0.0000000    0.0000000
 32   O1 d-1       -0.0000000   -0.0000000    0.0000000   -0.0000000    0.0114927
 33   O1 d+2       -0.0000619   -0.0022536   -0.0000000    0.0067153   -0.0000000
 34   O1 d-2        0.0000000    0.0000000    0.0000000    0.0000000    0.0000000
 35   O1 f0        -0.0000160    0.0000282   -0.0000000    0.0003501   -0.0000000
 36   O1 f+1        0.0000000    0.0000000    0.0004842    0.0000000   -0.0000000
 37   O1 f-1        0.0000000    0.0000000    0.0000000    0.0000000    0.0007237
 38   O1 f+2        0.0000261   -0.0000338    0.0000000    0.0008519    0.0000000
 39   O1 f-2       -0.0000000   -0.0000000   -0.0000000   -0.0000000   -0.0000000
 40   O1 f+3        0.0000000   -0.0000000    0.0007104    0.0000000   -0.0000000
 41   O1 f-3        0.0000000    0.0000000   -0.0000000    0.0000000    0.0008840
 42   O1 f0         0.0000464    0.0004456   -0.0000000    0.0015779    0.0000000
 43   O1 f+1       -0.0000000   -0.0000000    0.0027345   -0.0000000    0.0000000
 44   O1 f-1        0.0000000    0.0000000    0.0000000    0.0000000    0.0025415
 45   O1 f+2       -0.0000962   -0.0022972   -0.0000000    0.0031629   -0.0000000
 46   O1 f-2        0.0000000    0.0000000    0.0000000    0.0000000    0.0000000
 47   O1 f+3       -0.0000000   -0.0000000    0.0034470   -0.0000000    0.0000000
 48   O1 f-3       -0.0000000    0.0000000    0.0000000    0.0000000    0.0032826
 49   O1 g0         0.0000179    0.0001702   -0.0000000   -0.0000220   -0.0000000
 50   O1 g+1       -0.0000000    0.0000000    0.0000434   -0.0000000   -0.0000000
 51   O1 g-1       -0.0000000    0.0000000   -0.0000000    0.0000000    0.0000669
 52   O1 g+2       -0.0000290   -0.0003243   -0.0000000    0.0003049   -0.0000000
 53   O1 g-2        0.0000000    0.0000000   -0.0000000    0.0000000   -0.0000000
 54   O1 g+3       -0.0000000   -0.0000000    0.0004195   -0.0000000   -0.0000000
 55   O1 g-3        0.0000000    0.0000000    0.0000000    0.0000000    0.0001915
 56   O1 g+4       -0.0000113   -0.0000818   -0.0000000    0.0000839   -0.0000000
 57   O1 g-4       -0.0000000   -0.0000000   -0.0000000   -0.0000000   -0.0000000
 58   H2 s0        -0.0000378   -0.0187775    0.0562651    0.0522218   -0.0000000
 59   H2 s0         0.0001202   -0.0387905    0.1168934    0.1081252   -0.0000000
 60   H2 s0         0.0000709   -0.0299257    0.1734717    0.1684069   -0.0000000
 61   H2 s0        -0.0000509   -0.0037867    0.0638446    0.0482608   -0.0000000
 62   H2 p0         0.0000719    0.0008093   -0.0014950    0.0002224    0.0000000
 63   H2 p+1        0.0000555    0.0009171   -0.0006627   -0.0013465   -0.0000000
 64   H2 p-1       -0.0000000   -0.0000000    0.0000000    0.0000000    0.0013296
 65   H2 p0        -0.0001925    0.0054888   -0.0077952   -0.0045762    0.0000000
 66   H2 p+1       -0.0001446    0.0054382   -0.0038122   -0.0070324    0.0000000
 67   H2 p-1       -0.0000000    0.0000000   -0.0000000   -0.0000000    0.0036180
 68   H2 p0        -0.0000321    0.0043749   -0.0188503    0.0010176    0.0000000
 69   H2 p+1       -0.0000062    0.0051291   -0.0084557   -0.0241716    0.0000000
 70   H2 p-1        0.0000000    0.0000000    0.0000000   -0.0000000    0.0191815
 71   H2 d0        -0.0000101   -0.0001338    0.0002904   -0.0000213   -0.0000000
 72   H2 d+1       -0.0000152   -0.0005267    0.0005945    0.0004390   -0.0000000
 73   H2 d-1       -0.0000000   -0.0000000   -0.0000000    0.0000000   -0.0001807
 74   H2 d+2       -0.0000078   -0.0002663    0.0001127    0.0000854   -0.0000000
 75   H2 d-2       -0.0000000   -0.0000000   -0.0000000   -0.0000000   -0.0000563
 76   H2 d0         0.0000939   -0.0005315    0.0027633   -0.0012627   -0.0000000
 77   H2 d+1        0.0001971   -0.0016107    0.0030701    0.0022675   -0.0000000
 78   H2 d-1        0.0000000    0.0000000    0.0000000   -0.0000000   -0.0028648
 79   H2 d+2        0.0000829   -0.0008804    0.0008751    0.0040142   -0.0000000
 80   H2 d-2        0.0000000    0.0000000   -0.0000000   -0.0000000   -0.0035216
 81   H2 f0         0.0000172   -0.0000504   -0.0001681    0.0002756   -0.0000000
 82   H2 f+1       -0.0000651    0.0001841   -0.0007400   -0.0000226   -0.0000000
 83   H2 f-1       -0.0000000   -0.0000000    0.0000000    0.0000000    0.0002679
 84   H2 f+2       -0.0000653    0.0001788   -0.0004606   -0.0004451   -0.0000000
 85   H2 f-2       -0.0000000   -0.0000000   -0.0000000   -0.0000000    0.0005078
 86   H2 f+3       -0.0000272    0.0001097   -0.0001248   -0.0004143   -0.0000000
 87   H2 f-3       -0.0000000    0.0000000   -0.0000000    0.0000000    0.0003650
 88   H3 s0        -0.0000378   -0.0187775   -0.0562651    0.0522218    0.0000000
 89   H3 s0         0.0001202   -0.0387905   -0.1168934    0.1081252    0.0000000
 90   H3 s0         0.0000709   -0.0299257   -0.1734717    0.1684069    0.0000000
 91   H3 s0        -0.0000509   -0.0037867   -0.0638446    0.0482608    0.0000000
 92   H3 p0         0.0000719    0.0008093    0.0014950    0.0002224    0.0000000
 93   H3 p+1       -0.0000555   -0.0009171   -0.0006627    0.0013465    0.0000000
 94   H3 p-1        0.0000000    0.0000000   -0.0000000   -0.0000000    0.0013296
 95   H3 p0        -0.0001925    0.0054888    0.0077952   -0.0045762   -0.0000000
 96   H3 p+1        0.0001446   -0.0054382   -0.0038122    0.0070324   -0.0000000
 97   H3 p-1       -0.0000000   -0.0000000    0.0000000    0.0000000    0.0036180
 98   H3 p0        -0.0000321    0.0043749    0.0188503    0.0010176   -0.0000000
 99   H3 p+1        0.0000062   -0.0051291   -0.0084557    0.0241716    0.0000000
 100  H3 p-1        0.0000000   -0.0000000   -0.0000000   -0.0000000    0.0191815
 101  H3 d0        -0.0000101   -0.0001338   -0.0002904   -0.0000213   -0.0000000
 102  H3 d+1        0.0000152    0.0005267    0.0005945   -0.0004390    0.0000000
 103  H3 d-1        0.0000000    0.0000000    0.0000000    0.0000000   -0.0001807
 104  H3 d+2       -0.0000078   -0.0002663   -0.0001127    0.0000854    0.0000000
 105  H3 d-2       -0.0000000   -0.0000000    0.0000000   -0.0000000    0.0000563
 106  H3 d0         0.0000939   -0.0005315   -0.0027633   -0.0012627    0.0000000
 107  H3 d+1       -0.0001971    0.0016107    0.0030701   -0.0022675   -0.0000000
 108  H3 d-1       -0.0000000   -0.0000000   -0.0000000   -0.0000000   -0.0028648
 109  H3 d+2        0.0000829   -0.0008804   -0.0008751    0.0040142   -0.0000000
 110  H3 d-2        0.0000000   -0.0000000    0.0000000    0.0000000    0.0035216
 111  H3 f0         0.0000172   -0.0000504    0.0001681    0.0002756    0.0000000
 112  H3 f+1        0.0000651   -0.0001841   -0.0007400    0.0000226    0.0000000
 113  H3 f-1        0.0000000    0.0000000    0.0000000    0.0000000    0.0002679
 114  H3 f+2       -0.0000653    0.0001788    0.0004606   -0.0004451    0.0000000
 115  H3 f-2       -0.0000000    0.0000000   -0.0000000   -0.0000000   -0.0005078
 116  H3 f+3        0.0000272   -0.0001097   -0.0001248    0.0004143    0.0000000
 117  H3 f-3        0.0000000    0.0000000    0.0000000   -0.0000000    0.0003650

            Ene   -20.6298829   -1.2281716   -0.5254627   -0.5154280   -0.5025440
            Sym             A            A            A            A            A
            Occ             1            1            1            1            1

                            6            7            8            9           10

 1    O1 s0         0.0269460    0.0000000   -0.0000000    0.0195517    0.0202362
 2    O1 s0         0.0063270   -0.0000000    0.0000000   -0.0000414    0.0037071
 3    O1 s0         0.0275544    0.0000000   -0.0000000    0.0356224    0.0251948
 4    O1 s0         0.0378107   -0.0000000    0.0000000   -0.0207340    0.0164231
 5    O1 s0        -0.1438625    0.0000000   -0.0000000    0.0497539   -0.0785044
 6    O1 s0         0.0473786   -0.0000000    0.0000000   -0.2944064    0.0721507
 7    O1 s0        -0.5784587   -0.0000000    0.0000000    0.0423410   -1.2203805
 8    O1 p0        -0.1673018   -0.0000000    0.0000000   -0.1427061    0.1642114
 9    O1 p+1       -0.0000000    0.1812822    0.0979266    0.0000000   -0.0000000
 10   O1 p-1        0.0000000   -0.0000000   -0.0000000    0.0000000    0.0000000
 11   O1 p0        -0.1732288   -0.0000000    0.0000000   -0.1051085    0.0231633
 12   O1 p+1        0.0000000    0.2134548    0.0721619    0.0000000    0.0000000
 13   O1 p-1        0.0000000    0.0000000    0.0000000    0.0000000   -0.0000000
 14   O1 p0        -0.1382160   -0.0000000    0.0000000   -0.3855157    0.4781453
 15   O1 p+1       -0.0000000    0.0435775    0.3103227    0.0000000   -0.0000000
 16   O1 p-1       -0.0000000   -0.0000000   -0.0000000    0.0000000    0.0000000
 17   O1 p0        -0.2912154   -0.0000000    0.0000000   -0.2482501   -1.9160027
 18   O1 p+1       -0.0000000    0.5701523    0.1259735    0.0000000    0.0000000
 19   O1 p-1        0.0000000    0.0000000    0.0000000   -0.0000000   -0.0000000
 20   O1 d0        -0.0003470   -0.0000000    0.0000000   -0.0010406   -0.0033269
 21   O1 d+1       -0.0000000   -0.0001084   -0.0006509    0.0000000   -0.0000000
 22   O1 d-1        0.0000000    0.0000000   -0.0000000   -0.0000000   -0.0000000
 23   O1 d+2        0.0005783   -0.0000000   -0.0000000    0.0010730   -0.0028449
 24   O1 d-2        0.0000000   -0.0000000   -0.0000000    0.0000000   -0.0000000
 25   O1 d0        -0.0022143    0.0000000   -0.0000000    0.0094703    0.0219181
 26   O1 d+1        0.0000000   -0.0022791   -0.0229894   -0.0000000    0.0000000
 27   O1 d-1       -0.0000000    0.0000000   -0.0000000   -0.0000000    0.0000000
 28   O1 d+2        0.0005131    0.0000000   -0.0000000    0.0111393    0.0219025
 29   O1 d-2       -0.0000000    0.0000000    0.0000000   -0.0000000    0.0000000
 30   O1 d0         0.0012929   -0.0000000    0.0000000   -0.0439988   -0.0897241
 31   O1 d+1       -0.0000000   -0.0396354    0.1020880    0.0000000   -0.0000000
 32   O1 d-1       -0.0000000   -0.0000000    0.0000000    0.0000000   -0.0000000
 33   O1 d+2        0.0117598   -0.0000000    0.0000000   -0.0352273   -0.1067431
 34   O1 d-2       -0.0000000   -0.0000000   -0.0000000    0.0000000    0.0000000
 35   O1 f0        -0.0003515   -0.0000000    0.0000000   -0.0004759    0.0001926
 36   O1 f+1        0.0000000    0.0011270   -0.0035573   -0.0000000    0.0000000
 37   O1 f-1       -0.0000000   -0.0000000    0.0000000    0.0000000    0.0000000
 38   O1 f+2       -0.0001361    0.0000000   -0.0000000    0.0025947    0.0025396
 39   O1 f-2        0.0000000   -0.0000000   -0.0000000   -0.0000000   -0.0000000
 40   O1 f+3        0.0000000    0.0009667   -0.0016628   -0.0000000    0.0000000
 41   O1 f-3        0.0000000    0.0000000   -0.0000000   -0.0000000    0.0000000
 42   O1 f0        -0.0010425    0.0000000   -0.0000000    0.0010825    0.0019847
 43   O1 f+1       -0.0000000   -0.0084640    0.0185800    0.0000000   -0.0000000
 44   O1 f-1       -0.0000000    0.0000000   -0.0000000   -0.0000000    0.0000000
 45   O1 f+2       -0.0004466   -0.0000000    0.0000000   -0.0156820   -0.0138873
 46   O1 f-2       -0.0000000   -0.0000000    0.0000000    0.0000000    0.0000000
 47   O1 f+3       -0.0000000   -0.0022947    0.0110296    0.0000000   -0.0000000
 48   O1 f-3        0.0000000   -0.0000000    0.0000000    0.0000000    0.0000000
 49   O1 g0         0.0000159    0.0000000   -0.0000000    0.0009081   -0.0003901
 50   O1 g+1       -0.0000000   -0.0003339    0.0003748   -0.0000000   -0.0000000
 51   O1 g-1        0.0000000   -0.0000000    0.0000000    0.0000000   -0.0000000
 52   O1 g+2       -0.0000702   -0.0000000    0.0000000   -0.0016274    0.0005540
 53   O1 g-2       -0.0000000   -0.0000000    0.0000000    0.0000000   -0.0000000
 54   O1 g+3       -0.0000000   -0.0008661    0.0018122    0.0000000   -0.0000000
 55   O1 g-3       -0.0000000   -0.0000000   -0.0000000    0.0000000    0.0000000
 56   O1 g+4        0.0000265   -0.0000000    0.0000000   -0.0001522    0.0004364
 57   O1 g-4       -0.0000000   -0.0000000   -0.0000000   -0.0000000    0.0000000
 58   H2 s0         0.0305029   -0.0392964   -0.0863120    0.0887086    0.0078613
 59   H2 s0         0.1165096   -0.1354996    0.0503134   -0.0739853   -0.0921732
 60   H2 s0        -0.0394451    0.0572485   -1.4511127    1.5568624    0.9830024
 61   H2 s0         0.6911219   -1.2214099    1.6273188   -1.1278929    0.0369412
 62   H2 p0         0.0014572    0.0004968   -0.0099820    0.0069641   -0.0139525
 63   H2 p+1        0.0018531    0.0014557   -0.0087924    0.0091491   -0.0036834
 64   H2 p-1        0.0000000    0.0000000   -0.0000000   -0.0000000   -0.0000000
 65   H2 p0         0.0050440   -0.0177729    0.0297829   -0.0169865    0.0543069
 66   H2 p+1        0.0064922   -0.0188464    0.0332482   -0.0196118    0.0256650
 67   H2 p-1        0.0000000   -0.0000000    0.0000000    0.0000000    0.0000000
 68   H2 p0         0.0191168   -0.0383274    0.0064354   -0.0014088   -0.3418055
 69   H2 p+1        0.0272840   -0.0231293    0.0083777   -0.0184805   -0.2811251
 70   H2 p-1        0.0000000    0.0000000   -0.0000000   -0.0000000   -0.0000000
 71   H2 d0         0.0000035   -0.0001255    0.0011855   -0.0006123    0.0010174
 72   H2 d+1       -0.0001271   -0.0010716    0.0039049   -0.0030558   -0.0036559
 73   H2 d-1        0.0000000    0.0000000   -0.0000000   -0.0000000    0.0000000
 74   H2 d+2       -0.0005404   -0.0005008    0.0015239   -0.0020473   -0.0013137
 75   H2 d-2        0.0000000    0.0000000   -0.0000000    0.0000000    0.0000000
 76   H2 d0         0.0006341    0.0059544   -0.0118272    0.0056125   -0.0041005
 77   H2 d+1       -0.0042673    0.0139019   -0.0400005    0.0263974    0.0266165
 78   H2 d-1       -0.0000000   -0.0000000    0.0000000    0.0000000   -0.0000000
 79   H2 d+2       -0.0006935    0.0057870   -0.0168081    0.0189616    0.0143397
 80   H2 d-2       -0.0000000   -0.0000000    0.0000000    0.0000000   -0.0000000
 81   H2 f0        -0.0006859   -0.0000648   -0.0015105    0.0013182   -0.0004051
 82   H2 f+1        0.0012689   -0.0017186    0.0037896   -0.0036147   -0.0027696
 83   H2 f-1       -0.0000000   -0.0000000    0.0000000    0.0000000   -0.0000000
 84   H2 f+2        0.0016746   -0.0010824    0.0040737   -0.0047456   -0.0024835
 85   H2 f-2       -0.0000000    0.0000000    0.0000000   -0.0000000   -0.0000000
 86   H2 f+3        0.0004972   -0.0004080    0.0020210   -0.0018485   -0.0000022
 87   H2 f-3       -0.0000000   -0.0000000    0.0000000    0.0000000   -0.0000000
 88   H3 s0         0.0305029    0.0392964    0.0863120    0.0887086    0.0078613
 89   H3 s0         0.1165096    0.1354996   -0.0503134   -0.0739853   -0.0921732
 90   H3 s0        -0.0394451   -0.0572485    1.4511127    1.5568624    0.9830024
 91   H3 s0         0.6911219    1.2214099   -1.6273188   -1.1278929    0.0369412
 92   H3 p0         0.0014572   -0.0004968    0.0099820    0.0069641   -0.0139525
 93   H3 p+1       -0.0018531    0.0014557   -0.0087924   -0.0091491    0.0036834
 94   H3 p-1        0.0000000   -0.0000000    0.0000000   -0.0000000   -0.0000000
 95   H3 p0         0.0050440    0.0177729   -0.0297829   -0.0169865    0.0543069
 96   H3 p+1       -0.0064922   -0.0188464    0.0332482    0.0196118   -0.0256650
 97   H3 p-1       -0.0000000   -0.0000000    0.0000000    0.0000000    0.0000000
 98   H3 p0         0.0191168    0.0383274   -0.0064354   -0.0014088   -0.3418055
 99   H3 p+1       -0.0272840   -0.0231293    0.0083777    0.0184805    0.2811251
 100  H3 p-1        0.0000000    0.0000000   -0.0000000   -0.0000000   -0.0000000
 101  H3 d0         0.0000035    0.0001255   -0.0011855   -0.0006123    0.0010174
 102  H3 d+1        0.0001271   -0.0010716    0.0039049    0.0030558    0.0036559
 103  H3 d-1        0.0000000    0.0000000   -0.0000000    0.0000000    0.0000000
 104  H3 d+2       -0.0005404    0.0005008   -0.0015239   -0.0020473   -0.0013137
 105  H3 d-2       -0.0000000    0.0000000   -0.0000000   -0.0000000   -0.0000000
 106  H3 d0         0.0006341   -0.0059544    0.0118272    0.0056125   -0.0041005
 107  H3 d+1        0.0042673    0.0139019   -0.0400005   -0.0263974   -0.0266165
 108  H3 d-1       -0.0000000    0.0000000    0.0000000   -0.0000000   -0.0000000
 109  H3 d+2       -0.0006935   -0.0057870    0.0168081    0.0189616    0.0143397
 110  H3 d-2        0.0000000   -0.0000000    0.0000000   -0.0000000   -0.0000000
 111  H3 f0        -0.0006859    0.0000648    0.0015105    0.0013182   -0.0004051
 112  H3 f+1       -0.0012689   -0.0017186    0.0037896    0.0036147    0.0027696
 113  H3 f-1        0.0000000    0.0000000   -0.0000000   -0.0000000   -0.0000000
 114  H3 f+2        0.0016746    0.0010824   -0.0040737   -0.0047456   -0.0024835
 115  H3 f-2       -0.0000000    0.0000000    0.0000000   -0.0000000    0.0000000
 116  H3 f+3       -0.0004972   -0.0004080    0.0020210    0.0018485    0.0000022
 117  H3 f-3        0.0000000   -0.0000000   -0.0000000    0.0000000   -0.0000000

            Ene     0.0469212    0.0878950    0.2747252    0.3043008    0.3774567
            Sym             A            A            A            A            A
            Occ             0            0            0            0            0

                           11           12           13           14           15

 1    O1 s0        -0.0000000    0.0000000    0.0048147   -0.0000000   -0.0000000
 2    O1 s0        -0.0000000    0.0000000    0.0006879    0.0000000   -0.0000000
 3    O1 s0        -0.0000000    0.0000000    0.0065441    0.0000000   -0.0000000
 4    O1 s0        -0.0000000    0.0000000    0.0022943   -0.0000000    0.0000000
 5    O1 s0         0.0000000   -0.0000000   -0.0186526    0.0000000   -0.0000000
 6    O1 s0        -0.0000000    0.0000000    0.1093317   -0.0000000    0.0000000

    Molecular point group: c1

    Geometry (in Angstrom), charge = 0, multiplicity = 1:

       Center              X                  Y                   Z               Mass
    ------------   -----------------  -----------------  -----------------  -----------------
           O          0.000000000000     0.000000000000    -0.111914873272    15.994914619560
           H          1.000000000000     0.000000000000     0.888085126728     1.007825032070
           H         -1.000000000000     0.000000000000     0.888085126728     1.007825032070

*** Psi4 exiting successfully. Buy a developer a beer!
