                               Psi4 1.2a1.dev547

  ==> Input File <==

--------------------------------------------------------------------------

# PYTHONPATH must include directory above plugin directory.
#     Define either externally or here, then import plugin.
sys.path.insert(0, './..')
import syshfwplug
import psi4

plugin_load("./syshfwplug.so")

molecule mymol {
O  0.0 0.0 0.0
H  1.0 1.0 0.0
H -1.0 1.0 0.0
symmetry c1
noreorient
nocom
}

set {
  basis def2-svp
}

set syshfwplug {
  pref mytest
  dryrun false
  do_tei true
  do_oei true
  do_rijk true
  do_rimp2 true
  print 1
}

set scf reference rhf
set scf_type pk
set scf PRINT_MOS  true

e_scf,ref_wfn = energy('scf',return_wfn=True)
#ref_wfn = psi4.core.Wavefunction.build(mymol , psi4.core.get_global_option('BASIS'))
aux     = psi4.core.BasisSet.build(mymol, "DF_BASIS_SCF", "", "RIFIT", psi4.core.get_global_option('BASIS'))
aux2    = psi4.core.BasisSet.build(mymol, "DF_BASIS_MP2", "", "JKFIT", psi4.core.get_global_option('BASIS'))

ref_wfn.set_basisset("JKFIT",aux)
ref_wfn.set_basisset("RIFIT",aux2)

plugin("syshfwplug.so", ref_wfn)

#C = psi4.core.Matrix(ref_wfn.basisset().nbf(),ref_wfn.basisset().nbf())
#df = psi4.core.DFTensor(ref_wfn.basisset(), aux, C, 5 , ref_wfn.basisset().nbf()-5 )

#BQ2 = np.asarray(df.Qso())

#mints = MintsHelper(ref_wfn.basisset())
#I = np.asarray(mints.ao_eri())

#print "Check some ints:"
#for i in range(ref_wfn.basisset().nbf()):
#	print "{:16.8f} {:16.8f} {:16.8f} ".format(I[i,0,0,0] , np.sum([BQ2[Q][i,0]*BQ2[Q][0][0] for Q in range(aux.nbf())]), np.sum([BQ[Q][i,0]*BQ[Q][0][0] for Q in range(aux.nbf())]))

#syshfwplug.exampleFN(Qmn)
--------------------------------------------------------------------------

    Molecular point group: c1

    Geometry (in Angstrom), charge = 0, multiplicity = 1:

       Center              X                  Y                   Z               Mass
    ------------   -----------------  -----------------  -----------------  -----------------
           O          0.000000000000     0.000000000000     0.000000000000    15.994914619560
           H          1.000000000000     1.000000000000     0.000000000000     1.007825032070
           H         -1.000000000000     1.000000000000     0.000000000000     1.007825032070

  Charge       = 0
  Multiplicity = 1
  Basis Set: DEF2-SVP
    Blend: DEF2-SVP

    Orbital Energies (a.u.)
    -----------------------

    Doubly Occupied:

       1A    -20.620604     2A     -1.199973     3A     -0.518320
       4A     -0.508140     5A     -0.499343

  @RHF Final Energy:   -75.76204007603073

   => Energetics <=

    Nuclear Repulsion Energy =              6.2515452865887138
    One-Electron Energy =                -117.3344151568853562
    Two-Electron Energy =                  35.3208297942659186
    Total Energy =                        -75.7620400760307291
*** Psi4 exiting successfully. Buy a developer a beer!
