                               Psi4 1.2a1.dev547

  ==> Input File <==

--------------------------------------------------------------------------

# PYTHONPATH must include directory above plugin directory.
#     Define either externally or here, then import plugin.
sys.path.insert(0, './..')
import syshfwplug

plugin_load("./syshfwplug.so")

molecule {
Au 0.0 0.0 0.0
Au 2.5 0.0 0.0
symmetry c1
}

set {
  basis def2-svp
}

set syshfwplug {
  pref mytest
  do_tei 1
  print 1
}

set scf reference rhf
set scf_type pk
set scf PRINT_MOS  true

e_scf,ref_wfn = energy('scf',return_wfn=True)

plugin("syshfwplug.so", ref_wfn)
#syshfwplug.exampleFN(ref_wfn)
--------------------------------------------------------------------------

    Molecular point group: c1
  Charge       = 0
  Multiplicity = 1
  Basis Set: DEF2-SVP
    Blend: DEF2-SVP

    Orbital Energies (a.u.)
    -----------------------

    Doubly Occupied:

       1A     -4.687984     2A     -4.687032     3A     -2.738481
       4A     -2.722518     5A     -2.722517     6A     -2.721822
       7A     -2.721138     8A     -2.721137     9A     -0.515924
      10A     -0.490869    11A     -0.490869    12A     -0.452652
      13A     -0.452652    14A     -0.438948    15A     -0.438948
      16A     -0.418285    17A     -0.418285    18A     -0.403843
      19A     -0.291365

  @RHF Final Energy:  -269.59385489863104

   => Energetics <=

    Nuclear Repulsion Energy =             76.4131889203960100
    One-Electron Energy =                -630.9436114028803786
    Two-Electron Energy =                 284.9365675838533321
    Total Energy =                       -269.5938548986310366
    Molecular point group: c1

    Geometry (in Angstrom), charge = 0, multiplicity = 1:

       Center              X                  Y                   Z               Mass
    ------------   -----------------  -----------------  -----------------  -----------------
          AU         -1.250000000000     0.000000000000     0.000000000000   196.966568662000
          AU          1.250000000000     0.000000000000     0.000000000000   196.966568662000

*** Psi4 exiting successfully. Buy a developer a beer!
