                               Psi4 1.2a1.dev547

  ==> Input File <==

--------------------------------------------------------------------------

# PYTHONPATH must include directory above plugin directory.
#     Define either externally or here, then import plugin.
sys.path.insert(0, './..')
import syshfwplug

plugin_load("./syshfwplug.so")

molecule {
Au 0.0 0.0 0.0
Au 2.5 0.0 0.0
symmetry c1
}

set {
  basis def2-svp
}

set syshfwplug {
  pref mytest
  do_tei 1
  print 1
}

set scf reference uhf
set scf_type pk
set scf PRINT_MOS  true

e_scf,ref_wfn = energy('scf',return_wfn=True)

ref_wfn.Da().print_out()

plugin("syshfwplug.so", ref_wfn)
#syshfwplug.exampleFN(ref_wfn)
--------------------------------------------------------------------------

    Molecular point group: c1
  Charge       = 0
  Multiplicity = 1
  Basis Set: DEF2-SVP
    Blend: DEF2-SVP

    Orbital Energies (a.u.)
    -----------------------

    Alpha Occupied:

       1A     -4.687986     2A     -4.687035     3A     -2.738483
       4A     -2.722520     5A     -2.722520     6A     -2.721824
       7A     -2.721140     8A     -2.721139     9A     -0.515926
      10A     -0.490871    11A     -0.490871    12A     -0.452654
      13A     -0.452654    14A     -0.438950    15A     -0.438950
      16A     -0.418287    17A     -0.418287    18A     -0.403843
      19A     -0.291366

    Alpha Virtual:

      20A     -0.007277    21A      0.068307    22A      0.068308
      23A      0.092512    24A      0.141508    25A      0.141508
      26A      0.210742    27A      0.259800    28A      0.322117
      29A      0.594145    30A      0.594145    31A      0.632261
      32A      0.632261    33A      0.670986    34A      0.692983
      35A      0.692983    36A      0.772890    37A      0.772891
      38A      0.798623    39A      0.976662    40A      1.028286
      41A      1.028286    42A      1.097684    43A      1.097684
      44A      1.514770    45A      1.772749    46A      1.772750
      47A      1.780932    48A      1.834527    49A      1.834527
      50A      1.859861    51A      1.859861    52A      1.863167
      53A      1.863167    54A      1.878735    55A      1.878735
      56A      1.999768    57A      1.999769    58A      2.130635
      59A      2.267767    60A      2.400316    61A     43.104527
      62A     43.138437    63A    202.730064    64A    202.747647

    Beta Occupied:

       1A     -4.687986     2A     -4.687035     3A     -2.738483
       4A     -2.722520     5A     -2.722520     6A     -2.721824
       7A     -2.721140     8A     -2.721139     9A     -0.515926
      10A     -0.490871    11A     -0.490871    12A     -0.452654
      13A     -0.452654    14A     -0.438950    15A     -0.438950
      16A     -0.418287    17A     -0.418287    18A     -0.403843
      19A     -0.291366

    Beta Virtual:

      20A     -0.007277    21A      0.068307    22A      0.068308
      23A      0.092512    24A      0.141508    25A      0.141508
      26A      0.210742    27A      0.259800    28A      0.322117
      29A      0.594145    30A      0.594145    31A      0.632261
      32A      0.632261    33A      0.670986    34A      0.692983
      35A      0.692983    36A      0.772890    37A      0.772891
      38A      0.798623    39A      0.976662    40A      1.028286
      41A      1.028286    42A      1.097684    43A      1.097684
      44A      1.514770    45A      1.772749    46A      1.772750
      47A      1.780932    48A      1.834527    49A      1.834527
      50A      1.859861    51A      1.859861    52A      1.863167
      53A      1.863167    54A      1.878735    55A      1.878735
      56A      1.999768    57A      1.999769    58A      2.130635
      59A      2.267767    60A      2.400316    61A     43.104527
      62A     43.138437    63A    202.730064    64A    202.747647

    Final Occupation by Irrep:
              A
    DOCC [    19 ]
    SOCC [     0 ]

  Energy converged.

  @UHF Final Energy:  -269.59385489781738

   => Energetics <=

    Nuclear Repulsion Energy =             76.4131889203960100
    One-Electron Energy =                -630.9433657045624386
    Two-Electron Energy =                 284.9363218863490488
    Total Energy =                       -269.5938548978173799

  UHF NO Occupations:
  HONO-2 :   17  A 2.0000000
  HONO-1 :   18  A 2.0000000
  HONO-0 :   19  A 2.0000000
  LUNO+0 :   20  A 0.0000000
  LUNO+1 :   21  A 0.0000000
  LUNO+2 :   22  A 0.0000000
  LUNO+3 :   23  A 0.0000000

Properties will be evaluated at   0.000000,   0.000000,   0.000000 Bohr

Properties computed using the SCF density matrix

  Nuclear Dipole Moment: (a.u.)
     X:     0.0000      Y:     0.0000      Z:     0.0000

  Electronic Dipole Moment: (a.u.)
     X:     0.0000      Y:     0.0000      Z:    -0.0000

  Dipole Moment: (a.u.)
     X:     0.0000      Y:     0.0000      Z:    -0.0000     Total:     0.0000

  Dipole Moment: (Debye)
     X:     0.0000      Y:     0.0000      Z:    -0.0000     Total:     0.0000

  ==> Alpha-Spin Molecular Orbitals <==

                            1            2            3            4            5

 1    AU1 s0        0.2773433    0.2775653    0.0002344    0.0000000   -0.0000000
 2    AU1 s0       -0.6753163   -0.6758654   -0.0006219   -0.0000000    0.0000000
 3    AU1 s0        0.7016946    0.7024632    0.0018758    0.0000000   -0.0000000
 4    AU1 s0        0.2488719    0.2489538   -0.0029279   -0.0000000   -0.0000000
 5    AU1 s0        0.0059451    0.0055329    0.0017839   -0.0000000    0.0000000
 6    AU1 s0       -0.0008921   -0.0038417    0.0000181    0.0000000   -0.0000000
 7    AU1 p0        0.0000000    0.0000000    0.0000000    0.6530161    0.0000000
 8    AU1 p+1      -0.0020192   -0.0021500    0.6502455    0.0000000   -0.0000000
 9    AU1 p-1       0.0000000    0.0000000    0.0000000   -0.0000000    0.6530159
 10   AU1 p0        0.0000000    0.0000000    0.0000000    0.0753215    0.0000000
 11   AU1 p+1      -0.0003637   -0.0011150    0.0749900    0.0000000   -0.0000000
 12   AU1 p-1      -0.0000000   -0.0000000    0.0000000   -0.0000000    0.0753218
 13   AU1 p0       -0.0000000    0.0000000    0.0000000    0.0011769    0.0000000
 14   AU1 p+1      -0.0000926   -0.0017782    0.0009870    0.0000000   -0.0000000
 15   AU1 p-1      -0.0000000    0.0000000    0.0000000   -0.0000000    0.0011769
 16   AU1 d0       -0.0009315   -0.0007968    0.0002113    0.0000000   -0.0000000
 17   AU1 d+1       0.0000000   -0.0000000   -0.0000000   -0.0022400   -0.0000000
 18   AU1 d-1       0.0000000   -0.0000000   -0.0000000   -0.0000000    0.0000000
 19   AU1 d+2       0.0016137    0.0013803   -0.0003663   -0.0000000    0.0000000
 20   AU1 d-2      -0.0000000   -0.0000000   -0.0000000    0.0000000   -0.0022399
 21   AU1 d0        0.0002039    0.0004778   -0.0007697   -0.0000000    0.0000000
 22   AU1 d+1      -0.0000000    0.0000000    0.0000000    0.0004886    0.0000000
 23   AU1 d-1       0.0000000    0.0000000    0.0000000   -0.0000000    0.0000000
 24   AU1 d+2      -0.0003533   -0.0008276    0.0013333    0.0000000   -0.0000000
 25   AU1 d-2       0.0000000    0.0000000   -0.0000000   -0.0000000    0.0004884
 26   AU1 f0        0.0000000    0.0000000   -0.0000000   -0.0006737   -0.0000000
 27   AU1 f+1      -0.0001103    0.0000393   -0.0010347   -0.0000000    0.0000000
 28   AU1 f-1      -0.0000000   -0.0000000    0.0000000    0.0000000   -0.0002750
 29   AU1 f+2      -0.0000000   -0.0000000    0.0000000    0.0008698    0.0000000
 30   AU1 f-2      -0.0000000    0.0000000    0.0000000   -0.0000000    0.0000000
 31   AU1 f+3       0.0001424   -0.0000507    0.0013358    0.0000000   -0.0000000
 32   AU1 f-3       0.0000000    0.0000000   -0.0000000   -0.0000000    0.0010653
 33   AU2 s0        0.2773433   -0.2775653    0.0002344   -0.0000000    0.0000000
 34   AU2 s0       -0.6753163    0.6758654   -0.0006219    0.0000000   -0.0000000
 35   AU2 s0        0.7016946   -0.7024632    0.0018758   -0.0000000    0.0000000
 36   AU2 s0        0.2488719   -0.2489538   -0.0029279    0.0000000   -0.0000000
 37   AU2 s0        0.0059451   -0.0055329    0.0017839    0.0000000   -0.0000000
 38   AU2 s0       -0.0008921    0.0038417    0.0000181   -0.0000000    0.0000000
 39   AU2 p0       -0.0000000   -0.0000000    0.0000000    0.6530161    0.0000000
 40   AU2 p+1       0.0020192   -0.0021500   -0.6502455    0.0000000   -0.0000000
 41   AU2 p-1       0.0000000    0.0000000   -0.0000000   -0.0000000    0.6530159
 42   AU2 p0        0.0000000    0.0000000    0.0000000    0.0753215    0.0000000
 43   AU2 p+1       0.0003637   -0.0011150   -0.0749900    0.0000000   -0.0000000
 44   AU2 p-1      -0.0000000   -0.0000000    0.0000000   -0.0000000    0.0753218
 45   AU2 p0        0.0000000   -0.0000000   -0.0000000    0.0011769    0.0000000
 46   AU2 p+1       0.0000926   -0.0017782   -0.0009870    0.0000000   -0.0000000
 47   AU2 p-1       0.0000000   -0.0000000   -0.0000000   -0.0000000    0.0011769
 48   AU2 d0       -0.0009315    0.0007968    0.0002113   -0.0000000    0.0000000
 49   AU2 d+1       0.0000000    0.0000000   -0.0000000    0.0022400    0.0000000
 50   AU2 d-1       0.0000000   -0.0000000    0.0000000   -0.0000000    0.0000000
 51   AU2 d+2       0.0016137   -0.0013803   -0.0003663    0.0000000   -0.0000000
 52   AU2 d-2      -0.0000000    0.0000000   -0.0000000   -0.0000000    0.0022399
 53   AU2 d0        0.0002039   -0.0004778   -0.0007697    0.0000000   -0.0000000
 54   AU2 d+1      -0.0000000    0.0000000    0.0000000   -0.0004886   -0.0000000
 55   AU2 d-1      -0.0000000   -0.0000000    0.0000000   -0.0000000   -0.0000000
 56   AU2 d+2      -0.0003533    0.0008276    0.0013333   -0.0000000    0.0000000
 57   AU2 d-2      -0.0000000    0.0000000   -0.0000000    0.0000000   -0.0004884
 58   AU2 f0       -0.0000000   -0.0000000    0.0000000   -0.0006737   -0.0000000
 59   AU2 f+1       0.0001103    0.0000393    0.0010347   -0.0000000    0.0000000
 60   AU2 f-1       0.0000000   -0.0000000   -0.0000000    0.0000000   -0.0002750
 61   AU2 f+2       0.0000000    0.0000000    0.0000000    0.0008698    0.0000000
 62   AU2 f-2       0.0000000    0.0000000    0.0000000    0.0000000    0.0000000
 63   AU2 f+3      -0.0001424   -0.0000507   -0.0013358    0.0000000   -0.0000000
 64   AU2 f-3       0.0000000   -0.0000000    0.0000000   -0.0000000    0.0010653

            Ene    -4.6879864   -4.6870348   -2.7384834   -2.7225201   -2.7225196
            Sym             A            A            A            A            A
            Occ             1            1            1            1            1

                            6            7            8            9           10

 1    AU1 s0        0.0029140   -0.0000000    0.0000000    0.0211798   -0.0000000
 2    AU1 s0       -0.0073233    0.0000000   -0.0000000   -0.0538011   -0.0000000
 3    AU1 s0        0.0111698   -0.0000000    0.0000000    0.0790072    0.0000000
 4    AU1 s0       -0.0019648    0.0000000   -0.0000000    0.0243537   -0.0000000
 5    AU1 s0       -0.0029899   -0.0000000   -0.0000000   -0.0718037   -0.0000000
 6    AU1 s0        0.0065425    0.0000000    0.0000000   -0.0004498   -0.0000000
 7    AU1 p0       -0.0000000    0.6542958    0.0000000    0.0000000    0.0150574
 8    AU1 p+1       0.6581334    0.0000000    0.0000000    0.0570542    0.0000000
 9    AU1 p-1       0.0000000   -0.0000000    0.6542956    0.0000000   -0.0000000
 10   AU1 p0       -0.0000000    0.0747552    0.0000000   -0.0000000   -0.0027911
 11   AU1 p+1       0.0732451    0.0000000    0.0000000   -0.0172464   -0.0000000
 12   AU1 p-1       0.0000000   -0.0000000    0.0747555   -0.0000000    0.0000000
 13   AU1 p0       -0.0000000    0.0011518    0.0000000   -0.0000000   -0.0074449
 14   AU1 p+1       0.0042737    0.0000000    0.0000000   -0.0171204   -0.0000000
 15   AU1 p-1      -0.0000000   -0.0000000    0.0011518    0.0000000    0.0000000
 16   AU1 d0        0.0025078    0.0000000    0.0000000    0.2976308   -0.0000000
 17   AU1 d+1       0.0000000   -0.0026406   -0.0000000   -0.0000000   -0.6045061
 18   AU1 d-1      -0.0000000   -0.0000000    0.0000000    0.0000000   -0.0000000
 19   AU1 d+2      -0.0043439   -0.0000000   -0.0000000   -0.5154926    0.0000000
 20   AU1 d-2      -0.0000000    0.0000000   -0.0026404    0.0000000    0.0000000
 21   AU1 d0       -0.0008497   -0.0000000   -0.0000000    0.0709892   -0.0000000
 22   AU1 d+1      -0.0000000    0.0001583    0.0000000   -0.0000000   -0.1452773
 23   AU1 d-1      -0.0000000   -0.0000000    0.0000000    0.0000000   -0.0000000
 24   AU1 d+2       0.0014718    0.0000000    0.0000000   -0.1229530   -0.0000000
 25   AU1 d-2       0.0000000   -0.0000000    0.0001582    0.0000000    0.0000000
 26   AU1 f0        0.0000000   -0.0004541   -0.0000000    0.0000000    0.0017731
 27   AU1 f+1      -0.0003211   -0.0000000   -0.0000000    0.0041012   -0.0000000
 28   AU1 f-1      -0.0000000    0.0000000   -0.0001854   -0.0000000   -0.0000000
 29   AU1 f+2      -0.0000000    0.0005863    0.0000000   -0.0000000   -0.0022891
 30   AU1 f-2       0.0000000   -0.0000000    0.0000000   -0.0000000    0.0000000
 31   AU1 f+3       0.0004145    0.0000000    0.0000000   -0.0052948    0.0000000
 32   AU1 f-3       0.0000000   -0.0000000    0.0007182    0.0000000    0.0000000
 33   AU2 s0       -0.0029140    0.0000000   -0.0000000    0.0211798   -0.0000000
 34   AU2 s0        0.0073233   -0.0000000    0.0000000   -0.0538011    0.0000000
 35   AU2 s0       -0.0111698    0.0000000   -0.0000000    0.0790072   -0.0000000
 36   AU2 s0        0.0019648   -0.0000000    0.0000000    0.0243537    0.0000000
 37   AU2 s0        0.0029899    0.0000000    0.0000000   -0.0718037    0.0000000
 38   AU2 s0       -0.0065425   -0.0000000   -0.0000000   -0.0004498    0.0000000
 39   AU2 p0       -0.0000000   -0.6542958   -0.0000000    0.0000000    0.0150574
 40   AU2 p+1       0.6581334    0.0000000    0.0000000   -0.0570542   -0.0000000
 41   AU2 p-1       0.0000000    0.0000000   -0.6542956    0.0000000   -0.0000000
 42   AU2 p0       -0.0000000   -0.0747552   -0.0000000   -0.0000000   -0.0027911
 43   AU2 p+1       0.0732451    0.0000000    0.0000000    0.0172464    0.0000000
 44   AU2 p-1       0.0000000    0.0000000   -0.0747555   -0.0000000    0.0000000
 45   AU2 p0       -0.0000000   -0.0011518   -0.0000000    0.0000000   -0.0074449
 46   AU2 p+1       0.0042737    0.0000000    0.0000000    0.0171204   -0.0000000
 47   AU2 p-1       0.0000000    0.0000000   -0.0011518   -0.0000000    0.0000000
 48   AU2 d0       -0.0025078   -0.0000000   -0.0000000    0.2976308   -0.0000000
 49   AU2 d+1      -0.0000000   -0.0026406   -0.0000000    0.0000000    0.6045061
 50   AU2 d-1      -0.0000000   -0.0000000   -0.0000000    0.0000000   -0.0000000
 51   AU2 d+2       0.0043439    0.0000000    0.0000000   -0.5154926   -0.0000000
 52   AU2 d-2       0.0000000    0.0000000   -0.0026404   -0.0000000   -0.0000000
 53   AU2 d0        0.0008497    0.0000000    0.0000000    0.0709892   -0.0000000
 54   AU2 d+1       0.0000000    0.0001583    0.0000000    0.0000000    0.1452773
 55   AU2 d-1       0.0000000   -0.0000000   -0.0000000    0.0000000   -0.0000000
 56   AU2 d+2      -0.0014718   -0.0000000   -0.0000000   -0.1229530   -0.0000000
 57   AU2 d-2      -0.0000000   -0.0000000    0.0001582    0.0000000   -0.0000000
 58   AU2 f0        0.0000000    0.0004541    0.0000000    0.0000000    0.0017731
 59   AU2 f+1      -0.0003211   -0.0000000   -0.0000000   -0.0041012    0.0000000
 60   AU2 f-1      -0.0000000   -0.0000000    0.0001854    0.0000000   -0.0000000
 61   AU2 f+2      -0.0000000   -0.0005863   -0.0000000   -0.0000000   -0.0022891
 62   AU2 f-2       0.0000000   -0.0000000    0.0000000   -0.0000000    0.0000000
 63   AU2 f+3       0.0004145    0.0000000    0.0000000    0.0052948   -0.0000000
 64   AU2 f-3       0.0000000    0.0000000   -0.0007182   -0.0000000    0.0000000

            Ene    -2.7218243   -2.7211399   -2.7211394   -0.5159257   -0.4908714
            Sym             A            A            A            A            A
            Occ             1            1            1            1            1

                           11           12           13           14           15

 1    AU1 s0        0.0000000    0.0000000    0.0000007    0.0000000    0.0000011
 2    AU1 s0       -0.0000000   -0.0000000   -0.0000018   -0.0000000   -0.0000027
 3    AU1 s0       -0.0000000    0.0000000    0.0000030    0.0000000    0.0000042
 4    AU1 s0       -0.0000000    0.0000000    0.0000005    0.0000000    0.0000019
 5    AU1 s0       -0.0000000   -0.0000000   -0.0000055   -0.0000000   -0.0000087
 6    AU1 s0        0.0000000    0.0000000   -0.0000015   -0.0000000   -0.0000009
 7    AU1 p0        0.0000000    0.0000000   -0.0000000    0.0000000   -0.0000000
 8    AU1 p+1      -0.0000000   -0.0000000   -0.0000022   -0.0000000   -0.0000022
 9    AU1 p-1       0.0150569   -0.0000000   -0.0000000    0.0000000   -0.0000000
 10   AU1 p0       -0.0000000   -0.0000000    0.0000000   -0.0000000    0.0000000
 11   AU1 p+1       0.0000000    0.0000000    0.0000017    0.0000000    0.0000009
 12   AU1 p-1      -0.0027906    0.0000000    0.0000000   -0.0000000    0.0000000
 13   AU1 p0       -0.0000000   -0.0000000    0.0000000    0.0000000   -0.0000000
 14   AU1 p+1       0.0000000    0.0000000    0.0000031    0.0000000    0.0000031
 15   AU1 p-1      -0.0074442    0.0000000   -0.0000000   -0.0000000    0.0000000
 16   AU1 d0        0.0000000    0.0000000    0.5379785    0.0000000    0.5482409
 17   AU1 d+1      -0.0000000    0.0000000   -0.0000000   -0.0000000    0.0000000
 18   AU1 d-1      -0.0000000    0.6212096   -0.0000000    0.6330473   -0.0000000
 19   AU1 d+2      -0.0000000    0.0000000    0.3106131    0.0000000    0.3165134
 20   AU1 d-2      -0.6045064   -0.0000000    0.0000000    0.0000000   -0.0000000
 21   AU1 d0        0.0000000    0.0000000    0.1307555    0.0000000    0.1323240
 22   AU1 d+1      -0.0000000    0.0000000   -0.0000000   -0.0000000    0.0000000
 23   AU1 d-1      -0.0000000    0.1509849   -0.0000000    0.1527925   -0.0000000
 24   AU1 d+2      -0.0000000    0.0000000    0.0754949    0.0000000    0.0763933
 25   AU1 d-2      -0.1452771   -0.0000000    0.0000000    0.0000000   -0.0000000
 26   AU1 f0        0.0000000    0.0000000    0.0000000    0.0000000    0.0000000
 27   AU1 f+1       0.0000000   -0.0000000   -0.0012493   -0.0000000   -0.0036888
 28   AU1 f-1       0.0007238    0.0000000   -0.0000000    0.0000000   -0.0000000
 29   AU1 f+2      -0.0000000   -0.0000000    0.0000000    0.0000000    0.0000000
 30   AU1 f-2      -0.0000000   -0.0015801    0.0000000   -0.0046659    0.0000000
 31   AU1 f+3      -0.0000000   -0.0000000   -0.0009675   -0.0000000   -0.0028571
 32   AU1 f-3      -0.0028036    0.0000000   -0.0000000   -0.0000000   -0.0000000
 33   AU2 s0       -0.0000000    0.0000000    0.0000007   -0.0000000   -0.0000011
 34   AU2 s0       -0.0000000   -0.0000000   -0.0000018    0.0000000    0.0000027
 35   AU2 s0        0.0000000    0.0000000    0.0000030   -0.0000000   -0.0000042
 36   AU2 s0       -0.0000000    0.0000000    0.0000005   -0.0000000   -0.0000019
 37   AU2 s0        0.0000000   -0.0000000   -0.0000055    0.0000000    0.0000087
 38   AU2 s0       -0.0000000   -0.0000000   -0.0000015    0.0000000    0.0000009
 39   AU2 p0        0.0000000   -0.0000000   -0.0000000   -0.0000000    0.0000000
 40   AU2 p+1      -0.0000000    0.0000000    0.0000022   -0.0000000   -0.0000022
 41   AU2 p-1       0.0150569    0.0000000   -0.0000000   -0.0000000    0.0000000
 42   AU2 p0       -0.0000000    0.0000000    0.0000000    0.0000000   -0.0000000
 43   AU2 p+1       0.0000000   -0.0000000   -0.0000017    0.0000000    0.0000009
 44   AU2 p-1      -0.0027906   -0.0000000    0.0000000    0.0000000   -0.0000000
 45   AU2 p0       -0.0000000    0.0000000    0.0000000   -0.0000000    0.0000000
 46   AU2 p+1       0.0000000    0.0000000   -0.0000031    0.0000000    0.0000031
 47   AU2 p-1      -0.0074442   -0.0000000    0.0000000    0.0000000   -0.0000000
 48   AU2 d0        0.0000000    0.0000000    0.5379785   -0.0000000   -0.5482409
 49   AU2 d+1       0.0000000    0.0000000   -0.0000000   -0.0000000    0.0000000
 50   AU2 d-1      -0.0000000    0.6212096   -0.0000000   -0.6330473    0.0000000
 51   AU2 d+2       0.0000000    0.0000000    0.3106131   -0.0000000   -0.3165134
 52   AU2 d-2       0.6045064    0.0000000    0.0000000    0.0000000   -0.0000000
 53   AU2 d0        0.0000000    0.0000000    0.1307555   -0.0000000   -0.1323240
 54   AU2 d+1       0.0000000    0.0000000   -0.0000000    0.0000000    0.0000000
 55   AU2 d-1      -0.0000000    0.1509849   -0.0000000   -0.1527925    0.0000000
 56   AU2 d+2       0.0000000    0.0000000    0.0754949   -0.0000000   -0.0763933
 57   AU2 d-2       0.1452771   -0.0000000   -0.0000000    0.0000000   -0.0000000
 58   AU2 f0        0.0000000   -0.0000000    0.0000000    0.0000000   -0.0000000
 59   AU2 f+1      -0.0000000    0.0000000    0.0012493   -0.0000000   -0.0036888
 60   AU2 f-1       0.0007238    0.0000000   -0.0000000   -0.0000000    0.0000000
 61   AU2 f+2      -0.0000000    0.0000000    0.0000000   -0.0000000   -0.0000000
 62   AU2 f-2       0.0000000    0.0015801   -0.0000000   -0.0046659    0.0000000
 63   AU2 f+3      -0.0000000    0.0000000    0.0009675   -0.0000000   -0.0028571
 64   AU2 f-3      -0.0028036   -0.0000000    0.0000000    0.0000000   -0.0000000

            Ene    -0.4908711   -0.4526537   -0.4526536   -0.4389499   -0.4389498
            Sym             A            A            A            A            A
            Occ             1            1            1            1            1

                           16           17           18           19           20

 1    AU1 s0        0.0000000   -0.0000000    0.0252312    0.0931591    0.0674873
 2    AU1 s0       -0.0000000    0.0000000   -0.0644960   -0.2379218   -0.1724428
 3    AU1 s0        0.0000000   -0.0000000    0.1005834    0.3576231    0.2618044
 4    AU1 s0        0.0000000   -0.0000000    0.0234344    0.1252496    0.0881192
 5    AU1 s0       -0.0000000    0.0000000   -0.0859008   -0.3917898   -0.2209650
 6    AU1 s0        0.0000000    0.0000000   -0.2326146   -0.2776143   -0.3688411
 7    AU1 p0       -0.0000000    0.0260480    0.0000000    0.0000000    0.0000000
 8    AU1 p+1       0.0000000   -0.0000000    0.0370739    0.0713178   -0.0885697
 9    AU1 p-1       0.0260482    0.0000000   -0.0000000   -0.0000000   -0.0000000
 10   AU1 p0        0.0000000   -0.0085269   -0.0000000   -0.0000000   -0.0000000
 11   AU1 p+1      -0.0000000    0.0000000   -0.0045004   -0.0272619    0.0075854
 12   AU1 p-1      -0.0085272   -0.0000000   -0.0000000    0.0000000    0.0000000
 13   AU1 p0        0.0000000   -0.0232683   -0.0000000   -0.0000000   -0.0000000
 14   AU1 p+1       0.0000000    0.0000000   -0.1208067   -0.0708690    0.3906368
 15   AU1 p-1      -0.0232688   -0.0000000    0.0000000    0.0000000    0.0000000
 16   AU1 d0       -0.0000000    0.0000000   -0.3146715   -0.0553499    0.0515243
 17   AU1 d+1      -0.0000001    0.6461852    0.0000000    0.0000000   -0.0000000
 18   AU1 d-1      -0.0000000   -0.0000000    0.0000000   -0.0000000    0.0000000
 19   AU1 d+2       0.0000000   -0.0000000    0.5450465    0.0958600   -0.0892593
 20   AU1 d-2       0.6461852    0.0000001   -0.0000000   -0.0000000    0.0000000
 21   AU1 d0       -0.0000000    0.0000000   -0.0743052   -0.0077521    0.0217817
 22   AU1 d+1      -0.0000000    0.1646618    0.0000000    0.0000000   -0.0000000
 23   AU1 d-1      -0.0000000   -0.0000000    0.0000000   -0.0000000   -0.0000000
 24   AU1 d+2       0.0000000   -0.0000000    0.1287053    0.0134226   -0.0377334
 25   AU1 d-2       0.1646617    0.0000000   -0.0000000   -0.0000000   -0.0000000
 26   AU1 f0       -0.0000000    0.0050547    0.0000000    0.0000000   -0.0000000
 27   AU1 f+1       0.0000000    0.0000000    0.0056269    0.0023646   -0.0012369
 28   AU1 f-1       0.0020636    0.0000000    0.0000000   -0.0000000   -0.0000000
 29   AU1 f+2       0.0000000   -0.0065256    0.0000000   -0.0000000    0.0000000
 30   AU1 f-2       0.0000000   -0.0000000    0.0000000    0.0000000   -0.0000000
 31   AU1 f+3       0.0000000    0.0000000   -0.0072643   -0.0030530    0.0015968
 32   AU1 f-3      -0.0079921   -0.0000000   -0.0000000    0.0000000    0.0000000
 33   AU2 s0       -0.0000000    0.0000000   -0.0252312    0.0931591   -0.0674873
 34   AU2 s0        0.0000000   -0.0000000    0.0644960   -0.2379218    0.1724428
 35   AU2 s0        0.0000000    0.0000000   -0.1005834    0.3576231   -0.2618044
 36   AU2 s0       -0.0000000    0.0000000   -0.0234344    0.1252496   -0.0881192
 37   AU2 s0        0.0000000   -0.0000000    0.0859008   -0.3917898    0.2209650
 38   AU2 s0       -0.0000000    0.0000000    0.2326146   -0.2776143    0.3688411
 39   AU2 p0        0.0000000   -0.0260480   -0.0000000    0.0000000   -0.0000000
 40   AU2 p+1       0.0000000   -0.0000000    0.0370739   -0.0713178   -0.0885697
 41   AU2 p-1      -0.0260482   -0.0000000    0.0000000    0.0000000    0.0000000
 42   AU2 p0       -0.0000000    0.0085269    0.0000000    0.0000000    0.0000000
 43   AU2 p+1      -0.0000000    0.0000000   -0.0045004    0.0272619    0.0075854
 44   AU2 p-1       0.0085272    0.0000000   -0.0000000   -0.0000000   -0.0000000
 45   AU2 p0       -0.0000000    0.0232683    0.0000000   -0.0000000    0.0000000
 46   AU2 p+1       0.0000000   -0.0000000   -0.1208067    0.0708690    0.3906368
 47   AU2 p-1       0.0232688    0.0000000   -0.0000000   -0.0000000   -0.0000000
 48   AU2 d0       -0.0000000    0.0000000    0.3146715   -0.0553499   -0.0515243
 49   AU2 d+1      -0.0000001    0.6461852    0.0000000    0.0000000   -0.0000000
 50   AU2 d-1       0.0000000   -0.0000000   -0.0000000    0.0000000    0.0000000
 51   AU2 d+2      -0.0000000    0.0000000   -0.5450465    0.0958600    0.0892593
 52   AU2 d-2       0.6461852    0.0000001   -0.0000000    0.0000000   -0.0000000
 53   AU2 d0       -0.0000000    0.0000000    0.0743052   -0.0077521   -0.0217817
 54   AU2 d+1      -0.0000000    0.1646618    0.0000000    0.0000000    0.0000000
 55   AU2 d-1       0.0000000   -0.0000000   -0.0000000    0.0000000   -0.0000000
 56   AU2 d+2      -0.0000000    0.0000000   -0.1287053    0.0134226    0.0377334
 57   AU2 d-2       0.1646617    0.0000000   -0.0000000    0.0000000    0.0000000
 58   AU2 f0        0.0000000   -0.0050547    0.0000000   -0.0000000   -0.0000000
 59   AU2 f+1      -0.0000000    0.0000000    0.0056269   -0.0023646   -0.0012369
 60   AU2 f-1      -0.0020636   -0.0000000    0.0000000    0.0000000   -0.0000000
 61   AU2 f+2      -0.0000000    0.0065256   -0.0000000    0.0000000    0.0000000
 62   AU2 f-2       0.0000000    0.0000000   -0.0000000    0.0000000    0.0000000
 63   AU2 f+3      -0.0000000   -0.0000000   -0.0072643    0.0030530    0.0015968
 64   AU2 f-3       0.0079921    0.0000000   -0.0000000   -0.0000000    0.0000000

            Ene    -0.4182870   -0.4182869   -0.4038435   -0.2913663   -0.0072771
            Sym             A            A            A            A            A
            Occ             1            1            1            1            0

                           21           22           23           24           25

 1    AU1 s0       -0.0000000   -0.0000000    0.0095172    0.0000000   -0.0000000
 2    AU1 s0        0.0000000   -0.0000000   -0.0245377   -0.0000000    0.0000000
 3    AU1 s0       -0.0000000   -0.0000000    0.0255472    0.0000000   -0.0000000
 4    AU1 s0       -0.0000000    0.0000000    0.0613227    0.0000000    0.0000000

    Molecular point group: c1

    Geometry (in Angstrom), charge = 0, multiplicity = 1:

       Center              X                  Y                   Z               Mass
    ------------   -----------------  -----------------  -----------------  -----------------
          AU         -1.250000000000     0.000000000000     0.000000000000   196.966568662000
          AU          1.250000000000     0.000000000000     0.000000000000   196.966568662000

*** Psi4 exiting successfully. Buy a developer a beer!
