                               Psi4 1.2a1.dev547

  ==> Input File <==

--------------------------------------------------------------------------

# PYTHONPATH must include directory above plugin directory.
#     Define either externally or here, then import plugin.
sys.path.insert(0, './..')
#import syshfwplug

#plugin_load("./syshfwplug.so")

molecule {
O       5.000000000000000      5.000000000000000      5.117780000000000
H       5.000000000000000      5.764450000000000      4.528860000000000
H       5.000000000000000      4.235550000000000      4.528860000000000
symmetry c1
}

set {
  basis def2-qzvp
}

#set syshfwplug {
#  pref mytest
#  do_tei 1
#  print 1
#}

set scf reference uhf
set scf_type pk
set scf PRINT_MOS  true

e_scf,ref_wfn = energy('scf',return_wfn=True)

#plugin("syshfwplug.so", ref_wfn)
#syshfwplug.exampleFN(ref_wfn)
--------------------------------------------------------------------------

    Molecular point group: c1

    Geometry (in Angstrom), charge = 0, multiplicity = 1:

       Center              X                  Y                   Z               Mass
    ------------   -----------------  -----------------  -----------------  -----------------
           O          0.000000000000    -0.000000000000     0.065908907168    15.994914619560
           H          0.000000000000     0.764450000000    -0.523011092832     1.007825032070
           H          0.000000000000    -0.764450000000    -0.523011092832     1.007825032070

  Charge       = 0
  Multiplicity = 1
  Basis Set: DEF2-QZVP
    Blend: DEF2-QZVP

    Orbital Energies (a.u.)
    -----------------------

    Alpha Occupied:

       1A    -20.564408     2A     -1.347639     3A     -0.713134
       4A     -0.582072     5A     -0.509148

    Alpha Virtual:

       6A      0.103861     7A      0.147987     8A      0.341725
       9A      0.377892    10A      0.386965    11A      0.449850
      12A      0.529606    13A      0.591788    14A      0.654003
      15A      0.713473    16A      0.751273    17A      0.899486
      18A      1.033301    19A      1.045578    20A      1.155591
      21A      1.208854    22A      1.466344    23A      1.483953
      24A      1.489916    25A      1.554409    26A      1.592156
      27A      1.643719    28A      1.984438    29A      2.069562
      30A      2.175315    31A      2.189833    32A      2.287679
      33A      2.442960    34A      2.476695    35A      2.493128
      36A      2.522807    37A      2.577652    38A      2.700061
      39A      2.740161    40A      2.836425    41A      2.882126
      42A      3.073895    43A      3.155536    44A      3.330160
      45A      3.358307    46A      3.531031    47A      3.990253
      48A      4.127393    49A      4.153449    50A      4.174092
      51A      4.346398    52A      4.414448    53A      4.529215
      54A      4.534150    55A      4.718526    56A      4.903992
      57A      5.094037    58A      5.117411    59A      5.632197
      60A      5.672529    61A      5.677767    62A      5.988884
      63A      6.190793    64A      6.238986    65A      6.322563
      66A      6.692235    67A      6.795170    68A      7.049225
      69A      7.337922    70A      7.392197    71A      7.433791
      72A      7.449554    73A      7.546017    74A      7.665245
      75A      7.678436    76A      7.680378    77A      7.799804
      78A      8.005517    79A      8.110371    80A      8.154060
      81A      8.164692    82A      8.204210    83A      8.315234
      84A      8.396896    85A      8.619265    86A      8.835669
      87A      8.924166    88A      9.094184    89A      9.110763
      90A      9.371853    91A      9.393902    92A     10.262212
      93A     10.263604    94A     10.676978    95A     10.740591
      96A     11.166493    97A     11.178701    98A     11.379876
      99A     11.519305   100A     11.608916   101A     11.843333
     102A     11.966168   103A     12.248018   104A     12.276087
     105A     12.345867   106A     12.399811   107A     12.713669
     108A     13.331790   109A     13.983732   110A     14.086435
     111A     14.161763   112A     14.585570   113A     14.948145
     114A     17.156237   115A     17.156895   116A     49.506445
     117A    256.343041

    Beta Occupied:

       1A    -20.564408     2A     -1.347639     3A     -0.713134
       4A     -0.582072     5A     -0.509148

    Beta Virtual:

       6A      0.103861     7A      0.147987     8A      0.341725
       9A      0.377892    10A      0.386965    11A      0.449850
      12A      0.529606    13A      0.591788    14A      0.654003
      15A      0.713473    16A      0.751273    17A      0.899486
      18A      1.033301    19A      1.045578    20A      1.155591
      21A      1.208854    22A      1.466344    23A      1.483953
      24A      1.489916    25A      1.554409    26A      1.592156
      27A      1.643719    28A      1.984438    29A      2.069562
      30A      2.175315    31A      2.189833    32A      2.287679
      33A      2.442960    34A      2.476695    35A      2.493128
      36A      2.522807    37A      2.577652    38A      2.700061
      39A      2.740161    40A      2.836425    41A      2.882126
      42A      3.073895    43A      3.155536    44A      3.330160
      45A      3.358307    46A      3.531031    47A      3.990253
      48A      4.127393    49A      4.153449    50A      4.174092
      51A      4.346398    52A      4.414448    53A      4.529215
      54A      4.534150    55A      4.718526    56A      4.903992
      57A      5.094037    58A      5.117411    59A      5.632197
      60A      5.672529    61A      5.677767    62A      5.988884
      63A      6.190793    64A      6.238986    65A      6.322563
      66A      6.692235    67A      6.795170    68A      7.049225
      69A      7.337922    70A      7.392197    71A      7.433791
      72A      7.449554    73A      7.546017    74A      7.665245
      75A      7.678436    76A      7.680378    77A      7.799804
      78A      8.005517    79A      8.110371    80A      8.154060
      81A      8.164692    82A      8.204210    83A      8.315234
      84A      8.396896    85A      8.619265    86A      8.835669
      87A      8.924166    88A      9.094184    89A      9.110763
      90A      9.371853    91A      9.393902    92A     10.262212
      93A     10.263604    94A     10.676978    95A     10.740591
      96A     11.166493    97A     11.178701    98A     11.379876
      99A     11.519305   100A     11.608916   101A     11.843333
     102A     11.966168   103A     12.248018   104A     12.276087
     105A     12.345867   106A     12.399811   107A     12.713669
     108A     13.331790   109A     13.983732   110A     14.086435
     111A     14.161763   112A     14.585570   113A     14.948145
     114A     17.156237   115A     17.156895   116A     49.506445
     117A    256.343041

    Final Occupation by Irrep:
              A
    DOCC [     5 ]
    SOCC [     0 ]

  Energy converged.

  @UHF Final Energy:   -76.06612406913825

   => Energetics <=

    Nuclear Repulsion Energy =              9.1201069129370804
    One-Electron Energy =                -122.9398555530468968
    Two-Electron Energy =                  37.7536245709715601
    Total Energy =                        -76.0661240691382545

  UHF NO Occupations:
  HONO-2 :    3  A 2.0000000
  HONO-1 :    4  A 2.0000000
  HONO-0 :    5  A 2.0000000
  LUNO+0 :    6  A 0.0000000
  LUNO+1 :    7  A 0.0000000
  LUNO+2 :    8  A 0.0000000
  LUNO+3 :    9  A 0.0000000

Properties will be evaluated at   0.000000,   0.000000,   0.000000 Bohr

Properties computed using the SCF density matrix

  Nuclear Dipole Moment: (a.u.)
     X:     0.0000      Y:     0.0000      Z:    -0.9803

  Electronic Dipole Moment: (a.u.)
     X:    -0.0000      Y:     0.0000      Z:     0.1863

  Dipole Moment: (a.u.)
     X:    -0.0000      Y:     0.0000      Z:    -0.7940     Total:     0.7940

  Dipole Moment: (Debye)
     X:    -0.0000      Y:     0.0000      Z:    -2.0182     Total:     2.0182

  ==> Alpha-Spin Molecular Orbitals <==

                            1            2            3            4            5

 1    O1 s0         0.5605019    0.1157016   -0.0000000    0.0375850    0.0000000
 2    O1 s0        -0.0000224    0.0176321   -0.0000000    0.0059037   -0.0000000
 3    O1 s0         0.3660815    0.1425254   -0.0000000    0.0484184    0.0000000
 4    O1 s0         0.1625729    0.0704428   -0.0000000    0.0209566    0.0000000
 5    O1 s0         0.0138557   -0.2805326   -0.0000000   -0.0952905   -0.0000000
 6    O1 s0        -0.0085454   -0.4877319    0.0000000   -0.2066839    0.0000000
 7    O1 s0        -0.0035464   -0.1998170    0.0000000   -0.2481426    0.0000000
 8    O1 p0        -0.0022411    0.0417388    0.0000000   -0.3030656   -0.0000000
 9    O1 p+1        0.0000000    0.0000000    0.0000000   -0.0000000    0.3449377
 10   O1 p-1        0.0000000    0.0000000    0.2741448    0.0000000   -0.0000000
 11   O1 p0         0.0033389    0.0495014   -0.0000000   -0.2958029   -0.0000000
 12   O1 p+1       -0.0000000    0.0000000    0.0000000   -0.0000000    0.3395136
 13   O1 p-1       -0.0000000   -0.0000000    0.2675199    0.0000000   -0.0000000
 14   O1 p0         0.0026171    0.0318734   -0.0000000   -0.2392962   -0.0000000
 15   O1 p+1       -0.0000000   -0.0000000    0.0000000   -0.0000000    0.3165686
 16   O1 p-1       -0.0000000   -0.0000000    0.2082162    0.0000000    0.0000000
 17   O1 p0         0.0003334    0.0031637   -0.0000000   -0.1212524   -0.0000000
 18   O1 p+1       -0.0000000   -0.0000000    0.0000000   -0.0000000    0.1787497
 19   O1 p-1        0.0000000   -0.0000000    0.0522834    0.0000000    0.0000000
 20   O1 d0         0.0000731   -0.0002494    0.0000000    0.0021482    0.0000000
 21   O1 d+1       -0.0000000    0.0000000    0.0000000    0.0000000   -0.0020800
 22   O1 d-1       -0.0000000   -0.0000000   -0.0049531    0.0000000   -0.0000000
 23   O1 d+2       -0.0002201    0.0008234    0.0000000   -0.0016546    0.0000000
 24   O1 d-2       -0.0000000   -0.0000000   -0.0000000    0.0000000    0.0000000
 25   O1 d0        -0.0002723   -0.0018049   -0.0000000    0.0080623   -0.0000000
 26   O1 d+1        0.0000000   -0.0000000   -0.0000000   -0.0000000   -0.0075705
 27   O1 d-1        0.0000000    0.0000000   -0.0185656   -0.0000000   -0.0000000
 28   O1 d+2        0.0008369    0.0069384   -0.0000000   -0.0036121   -0.0000000
 29   O1 d-2       -0.0000000    0.0000000    0.0000000   -0.0000000   -0.0000000
 30   O1 d0        -0.0003905   -0.0019614    0.0000000    0.0098152    0.0000000
 31   O1 d+1        0.0000000   -0.0000000   -0.0000000    0.0000000   -0.0124232
 32   O1 d-1        0.0000000    0.0000000   -0.0176998   -0.0000000   -0.0000000
 33   O1 d+2        0.0012854    0.0050176   -0.0000000   -0.0017512   -0.0000000
 34   O1 d-2        0.0000000    0.0000000   -0.0000000    0.0000000   -0.0000000
 35   O1 f0         0.0000222   -0.0005051   -0.0000000    0.0000691    0.0000000
 36   O1 f+1        0.0000000   -0.0000000   -0.0000000    0.0000000    0.0004983
 37   O1 f-1        0.0000000   -0.0000000    0.0006027   -0.0000000   -0.0000000
 38   O1 f+2        0.0000477   -0.0012436   -0.0000000    0.0015740    0.0000000
 39   O1 f-2        0.0000000   -0.0000000   -0.0000000    0.0000000   -0.0000000
 40   O1 f+3       -0.0000000   -0.0000000    0.0000000   -0.0000000   -0.0012971
 41   O1 f-3       -0.0000000    0.0000000   -0.0015609    0.0000000   -0.0000000
 42   O1 f0        -0.0002794   -0.0009469    0.0000000   -0.0006031    0.0000000
 43   O1 f+1       -0.0000000    0.0000000    0.0000000    0.0000000    0.0009596
 44   O1 f-1       -0.0000000    0.0000000    0.0004700    0.0000000    0.0000000
 45   O1 f+2       -0.0008351   -0.0029912    0.0000000    0.0008295    0.0000000
 46   O1 f-2       -0.0000000   -0.0000000    0.0000000    0.0000000    0.0000000
 47   O1 f+3        0.0000000    0.0000000   -0.0000000   -0.0000000   -0.0026932
 48   O1 f-3        0.0000000    0.0000000   -0.0029768   -0.0000000    0.0000000
 49   O1 g0         0.0000965    0.0001671   -0.0000000    0.0000188   -0.0000000
 50   O1 g+1        0.0000000   -0.0000000   -0.0000000   -0.0000000   -0.0000246
 51   O1 g-1       -0.0000000   -0.0000000    0.0003220   -0.0000000   -0.0000000
 52   O1 g+2        0.0001586    0.0003335   -0.0000000   -0.0001185   -0.0000000
 53   O1 g-2        0.0000000    0.0000000    0.0000000   -0.0000000   -0.0000000
 54   O1 g+3        0.0000000   -0.0000000    0.0000000    0.0000000    0.0002988
 55   O1 g-3       -0.0000000   -0.0000000    0.0004977    0.0000000   -0.0000000
 56   O1 g+4       -0.0000416   -0.0001138    0.0000000   -0.0000422    0.0000000
 57   O1 g-4       -0.0000000   -0.0000000    0.0000000    0.0000000    0.0000000
 58   H2 s0        -0.0001508   -0.0509560    0.0803180    0.0479172    0.0000000
 59   H2 s0         0.0039329   -0.0787242    0.1550331    0.1062748   -0.0000000
 60   H2 s0         0.0021984   -0.0254799    0.1480867    0.1171891   -0.0000000
 61   H2 s0        -0.0000524   -0.0025100    0.0225219    0.0043730    0.0000000
 62   H2 p0         0.0000363   -0.0036581    0.0047804   -0.0005134    0.0000000
 63   H2 p+1       -0.0000000    0.0000000    0.0000000    0.0000000    0.0040896
 64   H2 p-1        0.0000307    0.0053630   -0.0036737   -0.0037863   -0.0000000
 65   H2 p0         0.0011889   -0.0058987    0.0148341   -0.0004758   -0.0000000
 66   H2 p+1       -0.0000000   -0.0000000   -0.0000000   -0.0000000    0.0134987
 67   H2 p-1       -0.0018792    0.0089736   -0.0108528   -0.0159716    0.0000000
 68   H2 p0         0.0007195   -0.0010464    0.0136003   -0.0111487   -0.0000000
 69   H2 p+1        0.0000000   -0.0000000   -0.0000000   -0.0000000    0.0303949
 70   H2 p-1       -0.0010635    0.0035553   -0.0092095   -0.0215656    0.0000000
 71   H2 d0        -0.0000162   -0.0000305    0.0007560   -0.0009120   -0.0000000
 72   H2 d+1        0.0000000   -0.0000000   -0.0000000    0.0000000    0.0011043
 73   H2 d-1       -0.0002143    0.0016857   -0.0022394   -0.0010883    0.0000000
 74   H2 d+2       -0.0001614    0.0012228   -0.0008837   -0.0014886    0.0000000
 75   H2 d-2        0.0000000    0.0000000    0.0000000    0.0000000   -0.0013361
 76   H2 d0        -0.0000999    0.0001601    0.0018791   -0.0042353    0.0000000
 77   H2 d+1       -0.0000000   -0.0000000   -0.0000000   -0.0000000    0.0040681
 78   H2 d-1       -0.0004757    0.0002966   -0.0036048    0.0007802    0.0000000
 79   H2 d+2       -0.0004507    0.0004696   -0.0012908   -0.0045078    0.0000000
 80   H2 d-2       -0.0000000    0.0000000    0.0000000    0.0000000   -0.0062623
 81   H2 f0        -0.0000660    0.0000782   -0.0001594   -0.0004280    0.0000000
 82   H2 f+1        0.0000000    0.0000000   -0.0000000    0.0000000    0.0003148
 83   H2 f-1        0.0000576    0.0001673   -0.0006520    0.0006828    0.0000000
 84   H2 f+2       -0.0000421    0.0002248   -0.0006458   -0.0002676    0.0000000
 85   H2 f-2       -0.0000000    0.0000000    0.0000000    0.0000000   -0.0010151
 86   H2 f+3       -0.0000000    0.0000000    0.0000000    0.0000000   -0.0009164
 87   H2 f-3        0.0000595   -0.0001427    0.0002320    0.0006212    0.0000000
 88   H3 s0        -0.0001508   -0.0509560   -0.0803180    0.0479172    0.0000000
 89   H3 s0         0.0039329   -0.0787242   -0.1550331    0.1062748   -0.0000000
 90   H3 s0         0.0021984   -0.0254799   -0.1480867    0.1171891   -0.0000000
 91   H3 s0        -0.0000524   -0.0025100   -0.0225219    0.0043730    0.0000000
 92   H3 p0         0.0000363   -0.0036581   -0.0047804   -0.0005134    0.0000000
 93   H3 p+1       -0.0000000   -0.0000000   -0.0000000   -0.0000000    0.0040896
 94   H3 p-1       -0.0000307   -0.0053630   -0.0036737    0.0037863    0.0000000
 95   H3 p0         0.0011889   -0.0058987   -0.0148341   -0.0004758   -0.0000000
 96   H3 p+1        0.0000000    0.0000000   -0.0000000   -0.0000000    0.0134987
 97   H3 p-1        0.0018792   -0.0089736   -0.0108528    0.0159716   -0.0000000
 98   H3 p0         0.0007195   -0.0010464   -0.0136003   -0.0111487   -0.0000000
 99   H3 p+1        0.0000000    0.0000000    0.0000000    0.0000000    0.0303949
 100  H3 p-1        0.0010635   -0.0035553   -0.0092095    0.0215656   -0.0000000
 101  H3 d0        -0.0000162   -0.0000305   -0.0007560   -0.0009120   -0.0000000
 102  H3 d+1       -0.0000000    0.0000000    0.0000000   -0.0000000    0.0011043
 103  H3 d-1        0.0002143   -0.0016857   -0.0022394    0.0010883   -0.0000000
 104  H3 d+2       -0.0001614    0.0012228    0.0008837   -0.0014886    0.0000000
 105  H3 d-2       -0.0000000    0.0000000    0.0000000   -0.0000000    0.0013361
 106  H3 d0        -0.0000999    0.0001601   -0.0018791   -0.0042353   -0.0000000
 107  H3 d+1        0.0000000    0.0000000    0.0000000   -0.0000000    0.0040681
 108  H3 d-1        0.0004757   -0.0002966   -0.0036048   -0.0007802   -0.0000000
 109  H3 d+2       -0.0004507    0.0004696    0.0012908   -0.0045078    0.0000000
 110  H3 d-2        0.0000000    0.0000000   -0.0000000   -0.0000000    0.0062623
 111  H3 f0        -0.0000660    0.0000782    0.0001594   -0.0004280   -0.0000000
 112  H3 f+1        0.0000000   -0.0000000    0.0000000   -0.0000000    0.0003148
 113  H3 f-1       -0.0000576   -0.0001673   -0.0006520   -0.0006828   -0.0000000
 114  H3 f+2       -0.0000421    0.0002248    0.0006458   -0.0002676    0.0000000
 115  H3 f-2       -0.0000000    0.0000000   -0.0000000   -0.0000000    0.0010151
 116  H3 f+3       -0.0000000   -0.0000000    0.0000000    0.0000000   -0.0009164
 117  H3 f-3       -0.0000595    0.0001427    0.0002320   -0.0006212    0.0000000

            Ene   -20.5644080   -1.3476394   -0.7131344   -0.5820723   -0.5091477
            Sym             A            A            A            A            A
            Occ             1            1            1            1            1

                            6            7            8            9           10

 1    O1 s0         0.0282711    0.0000000    0.0205487    0.0000000   -0.0000000
 2    O1 s0         0.0060136    0.0000000    0.0040531   -0.0000000   -0.0000000
 3    O1 s0         0.0312038    0.0000000    0.0244420    0.0000000   -0.0000000
 4    O1 s0         0.0325072   -0.0000000    0.0177825    0.0000000   -0.0000000
 5    O1 s0        -0.1500576    0.0000000    0.0127324   -0.0000000    0.0000000
 6    O1 s0         0.2386322   -0.0000000   -0.6505343   -0.0000000   -0.0000000
 7    O1 s0        -1.0801213   -0.0000000   -5.1026969   -0.0000000   -0.0000000
 8    O1 p0         0.0708803   -0.0000000   -0.1166409   -0.0000000    0.0000000
 9    O1 p+1       -0.0000000    0.0000000   -0.0000000    0.1914347    0.0000000
 10   O1 p-1       -0.0000000    0.0962542   -0.0000000   -0.0000000    0.0329031
 11   O1 p0         0.0184995    0.0000000    0.0815896    0.0000000    0.0000000
 12   O1 p+1       -0.0000000   -0.0000000   -0.0000000    0.0134192    0.0000000
 13   O1 p-1        0.0000000    0.0988046    0.0000000   -0.0000000    0.2593736
 14   O1 p0         0.1415017    0.0000000    0.4868499    0.0000000    0.0000000
 15   O1 p+1       -0.0000000    0.0000000   -0.0000000    0.9776093    0.0000000
 16   O1 p-1        0.0000000   -0.3940510    0.0000000   -0.0000000    0.9337600
 17   O1 p0         0.1101207    0.0000000    2.3913973    0.0000000   -0.0000000
 18   O1 p+1       -0.0000000    0.0000000    0.0000000   -1.4894024   -0.0000000
 19   O1 p-1        0.0000000    0.8133400    0.0000000   -0.0000000    2.4454907
 20   O1 d0        -0.0005162   -0.0000000   -0.0041595    0.0000000    0.0000000
 21   O1 d+1        0.0000000    0.0000000   -0.0000000    0.0035806    0.0000000
 22   O1 d-1        0.0000000   -0.0029013    0.0000000   -0.0000000    0.0061127
 23   O1 d+2        0.0005224   -0.0000000   -0.0002132    0.0000000   -0.0000000
 24   O1 d-2       -0.0000000    0.0000000    0.0000000    0.0000000    0.0000000
 25   O1 d0        -0.0002460    0.0000000    0.0242330   -0.0000000   -0.0000000
 26   O1 d+1       -0.0000000    0.0000000    0.0000000   -0.0250019   -0.0000000
 27   O1 d-1       -0.0000000    0.0160870   -0.0000000    0.0000000   -0.0228308
 28   O1 d+2       -0.0118483    0.0000000    0.0030541    0.0000000    0.0000000
 29   O1 d-2        0.0000000   -0.0000000   -0.0000000   -0.0000000   -0.0000000
 30   O1 d0         0.0006939   -0.0000000   -0.0281620   -0.0000000   -0.0000000
 31   O1 d+1        0.0000000    0.0000000    0.0000000   -0.0465562   -0.0000000
 32   O1 d-1       -0.0000000    0.1191304   -0.0000000    0.0000000   -0.4129358
 33   O1 d+2        0.0316819    0.0000000    0.3044866    0.0000000    0.0000000
 34   O1 d-2        0.0000000   -0.0000000    0.0000000   -0.0000000   -0.0000000
 35   O1 f0         0.0018570    0.0000000   -0.0000605    0.0000000    0.0000000
 36   O1 f+1       -0.0000000    0.0000000    0.0000000   -0.0005648   -0.0000000
 37   O1 f-1       -0.0000000    0.0003239   -0.0000000    0.0000000   -0.0004990
 38   O1 f+2        0.0040810    0.0000000   -0.0017730   -0.0000000    0.0000000
 39   O1 f-2       -0.0000000    0.0000000    0.0000000   -0.0000000    0.0000000
 40   O1 f+3       -0.0000000   -0.0000000    0.0000000    0.0013775    0.0000000
 41   O1 f-3        0.0000000   -0.0010996    0.0000000    0.0000000   -0.0018201
 42   O1 f0        -0.0065104   -0.0000000   -0.0292529    0.0000000   -0.0000000
 43   O1 f+1       -0.0000000   -0.0000000   -0.0000000    0.0133444    0.0000000
 44   O1 f-1        0.0000000   -0.0088186    0.0000000   -0.0000000    0.0578556
 45   O1 f+2       -0.0151348   -0.0000000   -0.0338932   -0.0000000   -0.0000000
 46   O1 f-2       -0.0000000   -0.0000000    0.0000000    0.0000000    0.0000000
 47   O1 f+3        0.0000000    0.0000000    0.0000000   -0.0372174   -0.0000000
 48   O1 f-3       -0.0000000    0.0157613   -0.0000000    0.0000000   -0.0085060
 49   O1 g0         0.0005249    0.0000000    0.0016077   -0.0000000    0.0000000
 50   O1 g+1        0.0000000   -0.0000000    0.0000000    0.0006864   -0.0000000
 51   O1 g-1       -0.0000000   -0.0014685   -0.0000000    0.0000000   -0.0054908
 52   O1 g+2        0.0007873    0.0000000    0.0003522    0.0000000    0.0000000
 53   O1 g-2       -0.0000000    0.0000000   -0.0000000   -0.0000000   -0.0000000
 54   O1 g+3       -0.0000000   -0.0000000   -0.0000000    0.0087152    0.0000000
 55   O1 g-3        0.0000000   -0.0017243    0.0000000   -0.0000000    0.0013880
 56   O1 g+4       -0.0009751   -0.0000000   -0.0028059   -0.0000000   -0.0000000
 57   O1 g-4        0.0000000    0.0000000   -0.0000000    0.0000000    0.0000000
 58   H2 s0         0.0027038    0.0002069    0.0105824    0.0000000   -0.0403116
 59   H2 s0         0.1118180    0.0862902    0.1791432    0.0000000   -0.2479861
 60   H2 s0        -0.1815037    0.5165514    3.2859021    0.0000000   -3.0481972
 61   H2 s0         0.9430377   -2.3338012   -0.1405854    0.0000000   -0.2499820
 62   H2 p0         0.0041807   -0.0058316   -0.0095293   -0.0000000    0.0133040
 63   H2 p+1       -0.0000000    0.0000000   -0.0000000    0.0112940   -0.0000000
 64   H2 p-1       -0.0034349    0.0047422    0.0035349    0.0000000   -0.0210755
 65   H2 p0        -0.0261838    0.0674969    0.1058915    0.0000000   -0.0878867
 66   H2 p+1        0.0000000   -0.0000000    0.0000000   -0.0668127   -0.0000000
 67   H2 p-1        0.0356815   -0.0684931   -0.0717266   -0.0000000    0.1794321
 68   H2 p0         0.0198723    0.0611474    0.5416428    0.0000000   -0.3728091
 69   H2 p+1        0.0000000    0.0000000    0.0000000    0.0244767    0.0000000
 70   H2 p-1       -0.0075809   -0.0856321   -0.7858606   -0.0000000    0.5457298
 71   H2 d0         0.0004323    0.0002705   -0.0000711   -0.0000000    0.0012240
 72   H2 d+1        0.0000000   -0.0000000    0.0000000    0.0006594    0.0000000
 73   H2 d-1       -0.0003558   -0.0016879    0.0018443   -0.0000000    0.0022563
 74   H2 d+2        0.0010171   -0.0016087   -0.0013565   -0.0000000    0.0004162
 75   H2 d-2       -0.0000000    0.0000000   -0.0000000   -0.0016633   -0.0000000
 76   H2 d0         0.0022922    0.0085581    0.0295062   -0.0000000    0.0317855
 77   H2 d+1        0.0000000    0.0000000    0.0000000   -0.0339046   -0.0000000
 78   H2 d-1        0.0305437   -0.0228944   -0.1258958   -0.0000000    0.1024325
 79   H2 d+2        0.0177881   -0.0066837   -0.0556928   -0.0000000    0.0963646
 80   H2 d-2       -0.0000000   -0.0000000   -0.0000000    0.0465666    0.0000000
 81   H2 f0         0.0030996    0.0005226   -0.0035133   -0.0000000    0.0117951
 82   H2 f+1        0.0000000    0.0000000   -0.0000000   -0.0032323   -0.0000000
 83   H2 f-1        0.0020045   -0.0016058   -0.0098852   -0.0000000   -0.0002547
 84   H2 f+2        0.0060254   -0.0006683   -0.0131343   -0.0000000    0.0127929
 85   H2 f-2       -0.0000000   -0.0000000   -0.0000000    0.0069881   -0.0000000
 86   H2 f+3        0.0000000   -0.0000000   -0.0000000    0.0058552   -0.0000000
 87   H2 f-3       -0.0031693   -0.0002340    0.0054196    0.0000000   -0.0095217
 88   H3 s0         0.0027038   -0.0002069    0.0105824   -0.0000000    0.0403116
 89   H3 s0         0.1118180   -0.0862902    0.1791432   -0.0000000    0.2479861
 90   H3 s0        -0.1815037   -0.5165514    3.2859021   -0.0000000    3.0481972
 91   H3 s0         0.9430377    2.3338012   -0.1405854   -0.0000000    0.2499820
 92   H3 p0         0.0041807    0.0058316   -0.0095293    0.0000000   -0.0133040
 93   H3 p+1       -0.0000000    0.0000000   -0.0000000    0.0112940    0.0000000
 94   H3 p-1        0.0034349    0.0047422   -0.0035349    0.0000000   -0.0210755
 95   H3 p0        -0.0261838   -0.0674969    0.1058915   -0.0000000    0.0878867
 96   H3 p+1       -0.0000000    0.0000000    0.0000000   -0.0668127   -0.0000000
 97   H3 p-1       -0.0356815   -0.0684931    0.0717266   -0.0000000    0.1794321
 98   H3 p0         0.0198723   -0.0611474    0.5416428   -0.0000000    0.3728091
 99   H3 p+1        0.0000000   -0.0000000    0.0000000    0.0244767   -0.0000000
 100  H3 p-1        0.0075809   -0.0856321    0.7858606   -0.0000000    0.5457298
 101  H3 d0         0.0004323   -0.0002705   -0.0000711    0.0000000   -0.0012240
 102  H3 d+1       -0.0000000   -0.0000000    0.0000000    0.0006594    0.0000000
 103  H3 d-1        0.0003558   -0.0016879   -0.0018443   -0.0000000    0.0022563
 104  H3 d+2        0.0010171    0.0016087   -0.0013565    0.0000000   -0.0004162
 105  H3 d-2       -0.0000000    0.0000000    0.0000000    0.0016633    0.0000000
 106  H3 d0         0.0022922   -0.0085581    0.0295062    0.0000000   -0.0317855
 107  H3 d+1        0.0000000    0.0000000    0.0000000   -0.0339046   -0.0000000
 108  H3 d-1       -0.0305437   -0.0228944    0.1258958   -0.0000000    0.1024325
 109  H3 d+2        0.0177881    0.0066837   -0.0556928    0.0000000   -0.0963646
 110  H3 d-2        0.0000000   -0.0000000    0.0000000   -0.0465666   -0.0000000
 111  H3 f0         0.0030996   -0.0005226   -0.0035133    0.0000000   -0.0117951
 112  H3 f+1       -0.0000000   -0.0000000    0.0000000   -0.0032323   -0.0000000
 113  H3 f-1       -0.0020045   -0.0016058    0.0098852   -0.0000000   -0.0002547
 114  H3 f+2        0.0060254    0.0006683   -0.0131343    0.0000000   -0.0127929
 115  H3 f-2       -0.0000000   -0.0000000   -0.0000000   -0.0069881   -0.0000000
 116  H3 f+3       -0.0000000   -0.0000000   -0.0000000    0.0058552    0.0000000
 117  H3 f-3        0.0031693   -0.0002340   -0.0054196    0.0000000   -0.0095217

            Ene     0.1038610    0.1479873    0.3417253    0.3778915    0.3869654
            Sym             A            A            A            A            A
            Occ             0            0            0            0            0

                           11           12           13           14           15

 1    O1 s0         0.0278459    0.0000000    0.0134942    0.0000000   -0.0000000
 2    O1 s0         0.0023842    0.0000000    0.0004541    0.0000000   -0.0000000
 3    O1 s0         0.0431851    0.0000000    0.0231406   -0.0000000   -0.0000000
 4    O1 s0        -0.0090682    0.0000000   -0.0089339    0.0000000   -0.0000000
 5    O1 s0         0.1252699   -0.0000000    0.0139958   -0.0000000    0.0000000
 6    O1 s0        -0.9286053    0.0000000   -0.1363161    0.0000000    0.0000000

*** Psi4 exiting successfully. Buy a developer a beer!
